
     Program PWSCF v.7.1 starts on  5Sep2023 at 14:11:21 

     This program is part of the open-source Quantum ESPRESSO suite
     for quantum simulation of materials; please cite
         "P. Giannozzi et al., J. Phys.:Condens. Matter 21 395502 (2009);
         "P. Giannozzi et al., J. Phys.:Condens. Matter 29 465901 (2017);
         "P. Giannozzi et al., J. Chem. Phys. 152 154105 (2020);
          URL http://www.quantum-espresso.org", 
     in publications or presentations arising from this work. More details at
     http://www.quantum-espresso.org/quote

     Parallel version (MPI & OpenMP), running on     512 processor cores
     Number of MPI processes:                64
     Threads/MPI process:                     8

     MPI processes distributed on     4 nodes
     492223 MiB available memory on the printing compute node when the environment starts

     Reading input from batio3_pol.in

     Current dimensions of program PWSCF are:
     Max number of different atomic species (ntypx) = 10
     Max number of k-points (npk) =  40000
     Max angular momentum in pseudopotentials (lmaxx) =  4

     IMPORTANT: XC functional enforced from input :
     Exchange-correlation= PBE
                           (   1   4   3   4   0   0   0)
     Any further DFT definition will be discarded
     Please, verify this is what you really want


     K-points division:     npool     =       2
     band groups division:  nbgrp     =       2
     R & G space division:  proc/nbgrp/npool/nimage =      16
     Subspace diagonalization in iterative solution of the eigenvalue problem:
     a serial algorithm will be used


     Parallelization info
     --------------------
     sticks:   dense  smooth     PW     G-vecs:    dense   smooth      PW
     Min          45      45     13                  969      969     163
     Max          46      46     14                  972      972     168
     Sum         725     725    221                15525    15525    2653

     Using Slab Decomposition



     bravais-lattice index     =            0
     lattice parameter (alat)  =       7.5612  a.u.
     unit-cell volume          =     455.3894 (a.u.)^3
     number of atoms/cell      =            5
     number of atomic types    =            3
     number of electrons       =        40.00
     number of Kohn-Sham states=           24
     kinetic-energy cutoff     =      40.0000  Ry
     charge density cutoff     =     160.0000  Ry
     scf convergence threshold =      1.0E-08
     mixing beta               =       0.7000
     number of iterations used =            8  plain     mixing
     Exchange-correlation= PBE
                           (   1   4   3   4   0   0   0)

     celldm(1)=   7.561157  celldm(2)=   0.000000  celldm(3)=   0.000000
     celldm(4)=   0.000000  celldm(5)=   0.000000  celldm(6)=   0.000000

     crystal axes: (cart. coord. in units of alat)
               a(1) = (   1.000000   0.000000   0.000000 )  
               a(2) = (   0.000000   1.000000   0.000000 )  
               a(3) = (   0.000000   0.000000   1.053460 )  

     reciprocal axes: (cart. coord. in units 2 pi/alat)
               b(1) = (  1.000000  0.000000  0.000000 )  
               b(2) = (  0.000000  1.000000  0.000000 )  
               b(3) = (  0.000000  0.000000  0.949253 )  


     PseudoPot. # 1 for Ba read from file:
     /global/homes/p/pabigail/qe_pseudos/Ba_ONCV_PBE-1.0.upf
     MD5 check sum: e597b880c13c16463245d39d15e4590c
     Pseudo is Norm-conserving, Zval = 10.0
     Generated using ONCVPSP code by D. R. Hamann
     Using radial grid of  602 points,  8 beta functions with: 
                l(1) =   0
                l(2) =   0
                l(3) =   1
                l(4) =   1
                l(5) =   2
                l(6) =   2
                l(7) =   3
                l(8) =   3

     PseudoPot. # 2 for O  read from file:
     /global/homes/p/pabigail/qe_pseudos/O_ONCV_PBE-1.0.upf
     MD5 check sum: 53d658c958ca66fa5043f518394989a9
     Pseudo is Norm-conserving, Zval =  6.0
     Generated using ONCVPSP code by D. R. Hamann
     Using radial grid of  602 points,  4 beta functions with: 
                l(1) =   0
                l(2) =   0
                l(3) =   1
                l(4) =   1

     PseudoPot. # 3 for Ti read from file:
     /global/homes/p/pabigail/qe_pseudos/Ti_ONCV_PBE-1.0.upf
     MD5 check sum: e4786939be8e0b19a872c585588d430a
     Pseudo is Norm-conserving, Zval = 12.0
     Generated using ONCVPSP code by D. R. Hamann
     Using radial grid of  602 points,  6 beta functions with: 
                l(1) =   0
                l(2) =   0
                l(3) =   1
                l(4) =   1
                l(5) =   2
                l(6) =   2

     atomic species   valence    mass     pseudopotential
        Ba            10.00   137.32700     Ba( 1.00)
        O              6.00    15.99940     O ( 1.00)
        Ti            12.00    47.86700     Ti( 1.00)

     No symmetry found


                                    s                        frac. trans.

      isym =  1     identity                                     

 cryst.   s( 1) = (     1          0          0      )
                  (     0          1          0      )
                  (     0          0          1      )

 cart.    s( 1) = (  1.0000000  0.0000000  0.0000000 )
                  (  0.0000000  1.0000000  0.0000000 )
                  (  0.0000000  0.0000000  1.0000000 )


   Cartesian axes

     site n.     atom                  positions (alat units)
         1           Ba  tau(   1) = (   0.0000000   0.0000000   0.0213958  )
         2           Ti  tau(   2) = (   0.5000000   0.5000000   0.5674759  )
         3           O   tau(   3) = (   0.0000000   0.5000000   0.5182414  )
         4           O   tau(   4) = (   0.5000000   0.0000000   0.5182414  )
         5           O   tau(   5) = (   0.5000000   0.5000000   1.0230438  )

   Crystallographic axes

     site n.     atom                  positions (cryst. coord.)
         1           Ba  tau(   1) = (  0.0000000  0.0000000  0.0203100  )
         2           Ti  tau(   2) = (  0.5000000  0.5000000  0.5386780  )
         3           O   tau(   3) = (  0.0000000  0.5000000  0.4919420  )
         4           O   tau(   4) = (  0.5000000  0.0000000  0.4919420  )
         5           O   tau(   5) = (  0.5000000  0.5000000  0.9711270  )

     number of k points=   125
                       cart. coord. in units 2pi/alat
        k(    1) = (   0.1000000   0.1000000   0.0949253), wk =   0.0160000
        k(    2) = (   0.1000000   0.1000000   0.2847758), wk =   0.0160000
        k(    3) = (   0.1000000   0.1000000  -0.4746263), wk =   0.0160000
        k(    4) = (   0.1000000   0.1000000  -0.2847758), wk =   0.0160000
        k(    5) = (   0.1000000   0.1000000  -0.0949253), wk =   0.0160000
        k(    6) = (   0.1000000   0.3000000   0.0949253), wk =   0.0160000
        k(    7) = (   0.1000000   0.3000000   0.2847758), wk =   0.0160000
        k(    8) = (   0.1000000   0.3000000  -0.4746263), wk =   0.0160000
        k(    9) = (   0.1000000   0.3000000  -0.2847758), wk =   0.0160000
        k(   10) = (   0.1000000   0.3000000  -0.0949253), wk =   0.0160000
        k(   11) = (   0.1000000  -0.5000000   0.0949253), wk =   0.0160000
        k(   12) = (   0.1000000  -0.5000000   0.2847758), wk =   0.0160000
        k(   13) = (   0.1000000  -0.5000000  -0.4746263), wk =   0.0160000
        k(   14) = (   0.1000000  -0.5000000  -0.2847758), wk =   0.0160000
        k(   15) = (   0.1000000  -0.5000000  -0.0949253), wk =   0.0160000
        k(   16) = (   0.1000000  -0.3000000   0.0949253), wk =   0.0160000
        k(   17) = (   0.1000000  -0.3000000   0.2847758), wk =   0.0160000
        k(   18) = (   0.1000000  -0.3000000  -0.4746263), wk =   0.0160000
        k(   19) = (   0.1000000  -0.3000000  -0.2847758), wk =   0.0160000
        k(   20) = (   0.1000000  -0.3000000  -0.0949253), wk =   0.0160000
        k(   21) = (   0.1000000  -0.1000000   0.0949253), wk =   0.0160000
        k(   22) = (   0.1000000  -0.1000000   0.2847758), wk =   0.0160000
        k(   23) = (   0.1000000  -0.1000000  -0.4746263), wk =   0.0160000
        k(   24) = (   0.1000000  -0.1000000  -0.2847758), wk =   0.0160000
        k(   25) = (   0.1000000  -0.1000000  -0.0949253), wk =   0.0160000
        k(   26) = (   0.3000000   0.1000000   0.0949253), wk =   0.0160000
        k(   27) = (   0.3000000   0.1000000   0.2847758), wk =   0.0160000
        k(   28) = (   0.3000000   0.1000000  -0.4746263), wk =   0.0160000
        k(   29) = (   0.3000000   0.1000000  -0.2847758), wk =   0.0160000
        k(   30) = (   0.3000000   0.1000000  -0.0949253), wk =   0.0160000
        k(   31) = (   0.3000000   0.3000000   0.0949253), wk =   0.0160000
        k(   32) = (   0.3000000   0.3000000   0.2847758), wk =   0.0160000
        k(   33) = (   0.3000000   0.3000000  -0.4746263), wk =   0.0160000
        k(   34) = (   0.3000000   0.3000000  -0.2847758), wk =   0.0160000
        k(   35) = (   0.3000000   0.3000000  -0.0949253), wk =   0.0160000
        k(   36) = (   0.3000000  -0.5000000   0.0949253), wk =   0.0160000
        k(   37) = (   0.3000000  -0.5000000   0.2847758), wk =   0.0160000
        k(   38) = (   0.3000000  -0.5000000  -0.4746263), wk =   0.0160000
        k(   39) = (   0.3000000  -0.5000000  -0.2847758), wk =   0.0160000
        k(   40) = (   0.3000000  -0.5000000  -0.0949253), wk =   0.0160000
        k(   41) = (   0.3000000  -0.3000000   0.0949253), wk =   0.0160000
        k(   42) = (   0.3000000  -0.3000000   0.2847758), wk =   0.0160000
        k(   43) = (   0.3000000  -0.3000000  -0.4746263), wk =   0.0160000
        k(   44) = (   0.3000000  -0.3000000  -0.2847758), wk =   0.0160000
        k(   45) = (   0.3000000  -0.3000000  -0.0949253), wk =   0.0160000
        k(   46) = (   0.3000000  -0.1000000   0.0949253), wk =   0.0160000
        k(   47) = (   0.3000000  -0.1000000   0.2847758), wk =   0.0160000
        k(   48) = (   0.3000000  -0.1000000  -0.4746263), wk =   0.0160000
        k(   49) = (   0.3000000  -0.1000000  -0.2847758), wk =   0.0160000
        k(   50) = (   0.3000000  -0.1000000  -0.0949253), wk =   0.0160000
        k(   51) = (  -0.5000000   0.1000000   0.0949253), wk =   0.0160000
        k(   52) = (  -0.5000000   0.1000000   0.2847758), wk =   0.0160000
        k(   53) = (  -0.5000000   0.1000000  -0.4746263), wk =   0.0160000
        k(   54) = (  -0.5000000   0.1000000  -0.2847758), wk =   0.0160000
        k(   55) = (  -0.5000000   0.1000000  -0.0949253), wk =   0.0160000
        k(   56) = (  -0.5000000   0.3000000   0.0949253), wk =   0.0160000
        k(   57) = (  -0.5000000   0.3000000   0.2847758), wk =   0.0160000
        k(   58) = (  -0.5000000   0.3000000  -0.4746263), wk =   0.0160000
        k(   59) = (  -0.5000000   0.3000000  -0.2847758), wk =   0.0160000
        k(   60) = (  -0.5000000   0.3000000  -0.0949253), wk =   0.0160000
        k(   61) = (  -0.5000000  -0.5000000   0.0949253), wk =   0.0160000
        k(   62) = (  -0.5000000  -0.5000000   0.2847758), wk =   0.0160000
        k(   63) = (  -0.5000000  -0.5000000  -0.4746263), wk =   0.0160000
        k(   64) = (  -0.5000000  -0.5000000  -0.2847758), wk =   0.0160000
        k(   65) = (  -0.5000000  -0.5000000  -0.0949253), wk =   0.0160000
        k(   66) = (  -0.5000000  -0.3000000   0.0949253), wk =   0.0160000
        k(   67) = (  -0.5000000  -0.3000000   0.2847758), wk =   0.0160000
        k(   68) = (  -0.5000000  -0.3000000  -0.4746263), wk =   0.0160000
        k(   69) = (  -0.5000000  -0.3000000  -0.2847758), wk =   0.0160000
        k(   70) = (  -0.5000000  -0.3000000  -0.0949253), wk =   0.0160000
        k(   71) = (  -0.5000000  -0.1000000   0.0949253), wk =   0.0160000
        k(   72) = (  -0.5000000  -0.1000000   0.2847758), wk =   0.0160000
        k(   73) = (  -0.5000000  -0.1000000  -0.4746263), wk =   0.0160000
        k(   74) = (  -0.5000000  -0.1000000  -0.2847758), wk =   0.0160000
        k(   75) = (  -0.5000000  -0.1000000  -0.0949253), wk =   0.0160000
        k(   76) = (  -0.3000000   0.1000000   0.0949253), wk =   0.0160000
        k(   77) = (  -0.3000000   0.1000000   0.2847758), wk =   0.0160000
        k(   78) = (  -0.3000000   0.1000000  -0.4746263), wk =   0.0160000
        k(   79) = (  -0.3000000   0.1000000  -0.2847758), wk =   0.0160000
        k(   80) = (  -0.3000000   0.1000000  -0.0949253), wk =   0.0160000
        k(   81) = (  -0.3000000   0.3000000   0.0949253), wk =   0.0160000
        k(   82) = (  -0.3000000   0.3000000   0.2847758), wk =   0.0160000
        k(   83) = (  -0.3000000   0.3000000  -0.4746263), wk =   0.0160000
        k(   84) = (  -0.3000000   0.3000000  -0.2847758), wk =   0.0160000
        k(   85) = (  -0.3000000   0.3000000  -0.0949253), wk =   0.0160000
        k(   86) = (  -0.3000000  -0.5000000   0.0949253), wk =   0.0160000
        k(   87) = (  -0.3000000  -0.5000000   0.2847758), wk =   0.0160000
        k(   88) = (  -0.3000000  -0.5000000  -0.4746263), wk =   0.0160000
        k(   89) = (  -0.3000000  -0.5000000  -0.2847758), wk =   0.0160000
        k(   90) = (  -0.3000000  -0.5000000  -0.0949253), wk =   0.0160000
        k(   91) = (  -0.3000000  -0.3000000   0.0949253), wk =   0.0160000
        k(   92) = (  -0.3000000  -0.3000000   0.2847758), wk =   0.0160000
        k(   93) = (  -0.3000000  -0.3000000  -0.4746263), wk =   0.0160000
        k(   94) = (  -0.3000000  -0.3000000  -0.2847758), wk =   0.0160000
        k(   95) = (  -0.3000000  -0.3000000  -0.0949253), wk =   0.0160000
        k(   96) = (  -0.3000000  -0.1000000   0.0949253), wk =   0.0160000
        k(   97) = (  -0.3000000  -0.1000000   0.2847758), wk =   0.0160000
        k(   98) = (  -0.3000000  -0.1000000  -0.4746263), wk =   0.0160000
        k(   99) = (  -0.3000000  -0.1000000  -0.2847758), wk =   0.0160000
        k(  100) = (  -0.3000000  -0.1000000  -0.0949253), wk =   0.0160000
        k(  101) = (  -0.1000000   0.1000000   0.0949253), wk =   0.0160000
        k(  102) = (  -0.1000000   0.1000000   0.2847758), wk =   0.0160000
        k(  103) = (  -0.1000000   0.1000000  -0.4746263), wk =   0.0160000
        k(  104) = (  -0.1000000   0.1000000  -0.2847758), wk =   0.0160000
        k(  105) = (  -0.1000000   0.1000000  -0.0949253), wk =   0.0160000
        k(  106) = (  -0.1000000   0.3000000   0.0949253), wk =   0.0160000
        k(  107) = (  -0.1000000   0.3000000   0.2847758), wk =   0.0160000
        k(  108) = (  -0.1000000   0.3000000  -0.4746263), wk =   0.0160000
        k(  109) = (  -0.1000000   0.3000000  -0.2847758), wk =   0.0160000
        k(  110) = (  -0.1000000   0.3000000  -0.0949253), wk =   0.0160000
        k(  111) = (  -0.1000000  -0.5000000   0.0949253), wk =   0.0160000
        k(  112) = (  -0.1000000  -0.5000000   0.2847758), wk =   0.0160000
        k(  113) = (  -0.1000000  -0.5000000  -0.4746263), wk =   0.0160000
        k(  114) = (  -0.1000000  -0.5000000  -0.2847758), wk =   0.0160000
        k(  115) = (  -0.1000000  -0.5000000  -0.0949253), wk =   0.0160000
        k(  116) = (  -0.1000000  -0.3000000   0.0949253), wk =   0.0160000
        k(  117) = (  -0.1000000  -0.3000000   0.2847758), wk =   0.0160000
        k(  118) = (  -0.1000000  -0.3000000  -0.4746263), wk =   0.0160000
        k(  119) = (  -0.1000000  -0.3000000  -0.2847758), wk =   0.0160000
        k(  120) = (  -0.1000000  -0.3000000  -0.0949253), wk =   0.0160000
        k(  121) = (  -0.1000000  -0.1000000   0.0949253), wk =   0.0160000
        k(  122) = (  -0.1000000  -0.1000000   0.2847758), wk =   0.0160000
        k(  123) = (  -0.1000000  -0.1000000  -0.4746263), wk =   0.0160000
        k(  124) = (  -0.1000000  -0.1000000  -0.2847758), wk =   0.0160000
        k(  125) = (  -0.1000000  -0.1000000  -0.0949253), wk =   0.0160000

                       cryst. coord.
        k(    1) = (   0.1000000   0.1000000   0.1000000), wk =   0.0160000
        k(    2) = (   0.1000000   0.1000000   0.3000000), wk =   0.0160000
        k(    3) = (   0.1000000   0.1000000  -0.5000000), wk =   0.0160000
        k(    4) = (   0.1000000   0.1000000  -0.3000000), wk =   0.0160000
        k(    5) = (   0.1000000   0.1000000  -0.1000000), wk =   0.0160000
        k(    6) = (   0.1000000   0.3000000   0.1000000), wk =   0.0160000
        k(    7) = (   0.1000000   0.3000000   0.3000000), wk =   0.0160000
        k(    8) = (   0.1000000   0.3000000  -0.5000000), wk =   0.0160000
        k(    9) = (   0.1000000   0.3000000  -0.3000000), wk =   0.0160000
        k(   10) = (   0.1000000   0.3000000  -0.1000000), wk =   0.0160000
        k(   11) = (   0.1000000  -0.5000000   0.1000000), wk =   0.0160000
        k(   12) = (   0.1000000  -0.5000000   0.3000000), wk =   0.0160000
        k(   13) = (   0.1000000  -0.5000000  -0.5000000), wk =   0.0160000
        k(   14) = (   0.1000000  -0.5000000  -0.3000000), wk =   0.0160000
        k(   15) = (   0.1000000  -0.5000000  -0.1000000), wk =   0.0160000
        k(   16) = (   0.1000000  -0.3000000   0.1000000), wk =   0.0160000
        k(   17) = (   0.1000000  -0.3000000   0.3000000), wk =   0.0160000
        k(   18) = (   0.1000000  -0.3000000  -0.5000000), wk =   0.0160000
        k(   19) = (   0.1000000  -0.3000000  -0.3000000), wk =   0.0160000
        k(   20) = (   0.1000000  -0.3000000  -0.1000000), wk =   0.0160000
        k(   21) = (   0.1000000  -0.1000000   0.1000000), wk =   0.0160000
        k(   22) = (   0.1000000  -0.1000000   0.3000000), wk =   0.0160000
        k(   23) = (   0.1000000  -0.1000000  -0.5000000), wk =   0.0160000
        k(   24) = (   0.1000000  -0.1000000  -0.3000000), wk =   0.0160000
        k(   25) = (   0.1000000  -0.1000000  -0.1000000), wk =   0.0160000
        k(   26) = (   0.3000000   0.1000000   0.1000000), wk =   0.0160000
        k(   27) = (   0.3000000   0.1000000   0.3000000), wk =   0.0160000
        k(   28) = (   0.3000000   0.1000000  -0.5000000), wk =   0.0160000
        k(   29) = (   0.3000000   0.1000000  -0.3000000), wk =   0.0160000
        k(   30) = (   0.3000000   0.1000000  -0.1000000), wk =   0.0160000
        k(   31) = (   0.3000000   0.3000000   0.1000000), wk =   0.0160000
        k(   32) = (   0.3000000   0.3000000   0.3000000), wk =   0.0160000
        k(   33) = (   0.3000000   0.3000000  -0.5000000), wk =   0.0160000
        k(   34) = (   0.3000000   0.3000000  -0.3000000), wk =   0.0160000
        k(   35) = (   0.3000000   0.3000000  -0.1000000), wk =   0.0160000
        k(   36) = (   0.3000000  -0.5000000   0.1000000), wk =   0.0160000
        k(   37) = (   0.3000000  -0.5000000   0.3000000), wk =   0.0160000
        k(   38) = (   0.3000000  -0.5000000  -0.5000000), wk =   0.0160000
        k(   39) = (   0.3000000  -0.5000000  -0.3000000), wk =   0.0160000
        k(   40) = (   0.3000000  -0.5000000  -0.1000000), wk =   0.0160000
        k(   41) = (   0.3000000  -0.3000000   0.1000000), wk =   0.0160000
        k(   42) = (   0.3000000  -0.3000000   0.3000000), wk =   0.0160000
        k(   43) = (   0.3000000  -0.3000000  -0.5000000), wk =   0.0160000
        k(   44) = (   0.3000000  -0.3000000  -0.3000000), wk =   0.0160000
        k(   45) = (   0.3000000  -0.3000000  -0.1000000), wk =   0.0160000
        k(   46) = (   0.3000000  -0.1000000   0.1000000), wk =   0.0160000
        k(   47) = (   0.3000000  -0.1000000   0.3000000), wk =   0.0160000
        k(   48) = (   0.3000000  -0.1000000  -0.5000000), wk =   0.0160000
        k(   49) = (   0.3000000  -0.1000000  -0.3000000), wk =   0.0160000
        k(   50) = (   0.3000000  -0.1000000  -0.1000000), wk =   0.0160000
        k(   51) = (  -0.5000000   0.1000000   0.1000000), wk =   0.0160000
        k(   52) = (  -0.5000000   0.1000000   0.3000000), wk =   0.0160000
        k(   53) = (  -0.5000000   0.1000000  -0.5000000), wk =   0.0160000
        k(   54) = (  -0.5000000   0.1000000  -0.3000000), wk =   0.0160000
        k(   55) = (  -0.5000000   0.1000000  -0.1000000), wk =   0.0160000
        k(   56) = (  -0.5000000   0.3000000   0.1000000), wk =   0.0160000
        k(   57) = (  -0.5000000   0.3000000   0.3000000), wk =   0.0160000
        k(   58) = (  -0.5000000   0.3000000  -0.5000000), wk =   0.0160000
        k(   59) = (  -0.5000000   0.3000000  -0.3000000), wk =   0.0160000
        k(   60) = (  -0.5000000   0.3000000  -0.1000000), wk =   0.0160000
        k(   61) = (  -0.5000000  -0.5000000   0.1000000), wk =   0.0160000
        k(   62) = (  -0.5000000  -0.5000000   0.3000000), wk =   0.0160000
        k(   63) = (  -0.5000000  -0.5000000  -0.5000000), wk =   0.0160000
        k(   64) = (  -0.5000000  -0.5000000  -0.3000000), wk =   0.0160000
        k(   65) = (  -0.5000000  -0.5000000  -0.1000000), wk =   0.0160000
        k(   66) = (  -0.5000000  -0.3000000   0.1000000), wk =   0.0160000
        k(   67) = (  -0.5000000  -0.3000000   0.3000000), wk =   0.0160000
        k(   68) = (  -0.5000000  -0.3000000  -0.5000000), wk =   0.0160000
        k(   69) = (  -0.5000000  -0.3000000  -0.3000000), wk =   0.0160000
        k(   70) = (  -0.5000000  -0.3000000  -0.1000000), wk =   0.0160000
        k(   71) = (  -0.5000000  -0.1000000   0.1000000), wk =   0.0160000
        k(   72) = (  -0.5000000  -0.1000000   0.3000000), wk =   0.0160000
        k(   73) = (  -0.5000000  -0.1000000  -0.5000000), wk =   0.0160000
        k(   74) = (  -0.5000000  -0.1000000  -0.3000000), wk =   0.0160000
        k(   75) = (  -0.5000000  -0.1000000  -0.1000000), wk =   0.0160000
        k(   76) = (  -0.3000000   0.1000000   0.1000000), wk =   0.0160000
        k(   77) = (  -0.3000000   0.1000000   0.3000000), wk =   0.0160000
        k(   78) = (  -0.3000000   0.1000000  -0.5000000), wk =   0.0160000
        k(   79) = (  -0.3000000   0.1000000  -0.3000000), wk =   0.0160000
        k(   80) = (  -0.3000000   0.1000000  -0.1000000), wk =   0.0160000
        k(   81) = (  -0.3000000   0.3000000   0.1000000), wk =   0.0160000
        k(   82) = (  -0.3000000   0.3000000   0.3000000), wk =   0.0160000
        k(   83) = (  -0.3000000   0.3000000  -0.5000000), wk =   0.0160000
        k(   84) = (  -0.3000000   0.3000000  -0.3000000), wk =   0.0160000
        k(   85) = (  -0.3000000   0.3000000  -0.1000000), wk =   0.0160000
        k(   86) = (  -0.3000000  -0.5000000   0.1000000), wk =   0.0160000
        k(   87) = (  -0.3000000  -0.5000000   0.3000000), wk =   0.0160000
        k(   88) = (  -0.3000000  -0.5000000  -0.5000000), wk =   0.0160000
        k(   89) = (  -0.3000000  -0.5000000  -0.3000000), wk =   0.0160000
        k(   90) = (  -0.3000000  -0.5000000  -0.1000000), wk =   0.0160000
        k(   91) = (  -0.3000000  -0.3000000   0.1000000), wk =   0.0160000
        k(   92) = (  -0.3000000  -0.3000000   0.3000000), wk =   0.0160000
        k(   93) = (  -0.3000000  -0.3000000  -0.5000000), wk =   0.0160000
        k(   94) = (  -0.3000000  -0.3000000  -0.3000000), wk =   0.0160000
        k(   95) = (  -0.3000000  -0.3000000  -0.1000000), wk =   0.0160000
        k(   96) = (  -0.3000000  -0.1000000   0.1000000), wk =   0.0160000
        k(   97) = (  -0.3000000  -0.1000000   0.3000000), wk =   0.0160000
        k(   98) = (  -0.3000000  -0.1000000  -0.5000000), wk =   0.0160000
        k(   99) = (  -0.3000000  -0.1000000  -0.3000000), wk =   0.0160000
        k(  100) = (  -0.3000000  -0.1000000  -0.1000000), wk =   0.0160000
        k(  101) = (  -0.1000000   0.1000000   0.1000000), wk =   0.0160000
        k(  102) = (  -0.1000000   0.1000000   0.3000000), wk =   0.0160000
        k(  103) = (  -0.1000000   0.1000000  -0.5000000), wk =   0.0160000
        k(  104) = (  -0.1000000   0.1000000  -0.3000000), wk =   0.0160000
        k(  105) = (  -0.1000000   0.1000000  -0.1000000), wk =   0.0160000
        k(  106) = (  -0.1000000   0.3000000   0.1000000), wk =   0.0160000
        k(  107) = (  -0.1000000   0.3000000   0.3000000), wk =   0.0160000
        k(  108) = (  -0.1000000   0.3000000  -0.5000000), wk =   0.0160000
        k(  109) = (  -0.1000000   0.3000000  -0.3000000), wk =   0.0160000
        k(  110) = (  -0.1000000   0.3000000  -0.1000000), wk =   0.0160000
        k(  111) = (  -0.1000000  -0.5000000   0.1000000), wk =   0.0160000
        k(  112) = (  -0.1000000  -0.5000000   0.3000000), wk =   0.0160000
        k(  113) = (  -0.1000000  -0.5000000  -0.5000000), wk =   0.0160000
        k(  114) = (  -0.1000000  -0.5000000  -0.3000000), wk =   0.0160000
        k(  115) = (  -0.1000000  -0.5000000  -0.1000000), wk =   0.0160000
        k(  116) = (  -0.1000000  -0.3000000   0.1000000), wk =   0.0160000
        k(  117) = (  -0.1000000  -0.3000000   0.3000000), wk =   0.0160000
        k(  118) = (  -0.1000000  -0.3000000  -0.5000000), wk =   0.0160000
        k(  119) = (  -0.1000000  -0.3000000  -0.3000000), wk =   0.0160000
        k(  120) = (  -0.1000000  -0.3000000  -0.1000000), wk =   0.0160000
        k(  121) = (  -0.1000000  -0.1000000   0.1000000), wk =   0.0160000
        k(  122) = (  -0.1000000  -0.1000000   0.3000000), wk =   0.0160000
        k(  123) = (  -0.1000000  -0.1000000  -0.5000000), wk =   0.0160000
        k(  124) = (  -0.1000000  -0.1000000  -0.3000000), wk =   0.0160000
        k(  125) = (  -0.1000000  -0.1000000  -0.1000000), wk =   0.0160000

     Dense  grid:    15525 G-vectors     FFT dimensions: (  32,  32,  36)

     Dynamical RAM for                 wfc:       0.04 MB

     Dynamical RAM for     wfc (w. buffer):       2.84 MB

     Dynamical RAM for           str. fact:       0.04 MB

     Dynamical RAM for           local pot:       0.00 MB

     Dynamical RAM for          nlocal pot:       0.14 MB

     Dynamical RAM for                qrad:       7.31 MB

     Dynamical RAM for          rho,v,vnew:       0.11 MB

     Dynamical RAM for               rhoin:       0.04 MB

     Dynamical RAM for            rho*nmix:       0.24 MB

     Dynamical RAM for           G-vectors:       0.06 MB

     Dynamical RAM for          h,s,v(r/c):       0.11 MB

     Dynamical RAM for          <psi|beta>:       0.03 MB

     Dynamical RAM for                 psi:       0.09 MB

     Dynamical RAM for                hpsi:       0.09 MB

     Dynamical RAM for      wfcinit/wfcrot:       0.10 MB

     Estimated static dynamical RAM per process >      10.72 MB

     Estimated max dynamical RAM per process >      11.27 MB

     Estimated total dynamical RAM >     713.69 MB

     Initial potential from superposition of free atoms

     starting charge      39.4956, renormalised to      40.0000
     Starting wfcs are random

     total cpu time spent up to now is        0.9 secs

     Self-consistent Calculation

     iteration #  1     ecut=    40.00 Ry     beta= 0.70
     Davidson diagonalization with overlap

---- Real-time Memory Report at c_bands before calling an iterative solver
           179 MiB given to the printing process from OS
             0 MiB allocation reported by mallinfo(arena+hblkhd)
        491958 MiB available memory on the node where the printing process lives
------------------
     ethr =  1.00E-02,  avg # of iterations = 12.9

     total cpu time spent up to now is        4.3 secs

     total energy              =    -262.06643623 Ry
     estimated scf accuracy    <       1.06610910 Ry

     iteration #  2     ecut=    40.00 Ry     beta= 0.70
     Davidson diagonalization with overlap

---- Real-time Memory Report at c_bands before calling an iterative solver
           181 MiB given to the printing process from OS
             0 MiB allocation reported by mallinfo(arena+hblkhd)
        492439 MiB available memory on the node where the printing process lives
------------------
     ethr =  2.67E-03,  avg # of iterations =  6.2

     total cpu time spent up to now is        6.1 secs

     total energy              =    -260.42528692 Ry
     estimated scf accuracy    <      12.70680526 Ry

     iteration #  3     ecut=    40.00 Ry     beta= 0.70
     Davidson diagonalization with overlap

---- Real-time Memory Report at c_bands before calling an iterative solver
           195 MiB given to the printing process from OS
             0 MiB allocation reported by mallinfo(arena+hblkhd)
        492370 MiB available memory on the node where the printing process lives
------------------
     ethr =  2.67E-03,  avg # of iterations =  4.8

     total cpu time spent up to now is        7.5 secs

     total energy              =    -262.62985572 Ry
     estimated scf accuracy    <       0.30423137 Ry

     iteration #  4     ecut=    40.00 Ry     beta= 0.70
     Davidson diagonalization with overlap

---- Real-time Memory Report at c_bands before calling an iterative solver
           196 MiB given to the printing process from OS
             0 MiB allocation reported by mallinfo(arena+hblkhd)
        492376 MiB available memory on the node where the printing process lives
------------------
     ethr =  7.61E-04,  avg # of iterations =  1.8

     total cpu time spent up to now is        8.4 secs

     total energy              =    -262.60220406 Ry
     estimated scf accuracy    <       0.17229525 Ry

     iteration #  5     ecut=    40.00 Ry     beta= 0.70
     Davidson diagonalization with overlap

---- Real-time Memory Report at c_bands before calling an iterative solver
           196 MiB given to the printing process from OS
             0 MiB allocation reported by mallinfo(arena+hblkhd)
        492402 MiB available memory on the node where the printing process lives
------------------
     ethr =  4.31E-04,  avg # of iterations =  1.7

     total cpu time spent up to now is        9.3 secs

     total energy              =    -262.60604508 Ry
     estimated scf accuracy    <       0.03906671 Ry

     iteration #  6     ecut=    40.00 Ry     beta= 0.70
     Davidson diagonalization with overlap

---- Real-time Memory Report at c_bands before calling an iterative solver
           196 MiB given to the printing process from OS
             0 MiB allocation reported by mallinfo(arena+hblkhd)
        492403 MiB available memory on the node where the printing process lives
------------------
     ethr =  9.77E-05,  avg # of iterations =  4.1

     total cpu time spent up to now is       10.4 secs

     total energy              =    -262.60716990 Ry
     estimated scf accuracy    <       0.00887804 Ry

     iteration #  7     ecut=    40.00 Ry     beta= 0.70
     Davidson diagonalization with overlap

---- Real-time Memory Report at c_bands before calling an iterative solver
           196 MiB given to the printing process from OS
             0 MiB allocation reported by mallinfo(arena+hblkhd)
        492418 MiB available memory on the node where the printing process lives
------------------
     ethr =  2.22E-05,  avg # of iterations =  4.9

     total cpu time spent up to now is       11.7 secs

     total energy              =    -262.60745528 Ry
     estimated scf accuracy    <       0.00134947 Ry

     iteration #  8     ecut=    40.00 Ry     beta= 0.70
     Davidson diagonalization with overlap

---- Real-time Memory Report at c_bands before calling an iterative solver
           196 MiB given to the printing process from OS
             0 MiB allocation reported by mallinfo(arena+hblkhd)
        492429 MiB available memory on the node where the printing process lives
------------------
     c_bands:  1 eigenvalues not converged
     ethr =  3.37E-06,  avg # of iterations =  5.6

     total cpu time spent up to now is       13.3 secs

     total energy              =    -262.60808962 Ry
     estimated scf accuracy    <       0.00033730 Ry

     iteration #  9     ecut=    40.00 Ry     beta= 0.70
     Davidson diagonalization with overlap

---- Real-time Memory Report at c_bands before calling an iterative solver
           196 MiB given to the printing process from OS
             0 MiB allocation reported by mallinfo(arena+hblkhd)
        492441 MiB available memory on the node where the printing process lives
------------------
     ethr =  8.43E-07,  avg # of iterations =  2.3

     total cpu time spent up to now is       14.3 secs

     total energy              =    -262.60810302 Ry
     estimated scf accuracy    <       0.00007928 Ry

     iteration # 10     ecut=    40.00 Ry     beta= 0.70
     Davidson diagonalization with overlap

---- Real-time Memory Report at c_bands before calling an iterative solver
           196 MiB given to the printing process from OS
             0 MiB allocation reported by mallinfo(arena+hblkhd)
        492459 MiB available memory on the node where the printing process lives
------------------
     ethr =  1.98E-07,  avg # of iterations =  3.7

     total cpu time spent up to now is       15.5 secs

     total energy              =    -262.60811470 Ry
     estimated scf accuracy    <       0.00000874 Ry

     iteration # 11     ecut=    40.00 Ry     beta= 0.70
     Davidson diagonalization with overlap

---- Real-time Memory Report at c_bands before calling an iterative solver
           196 MiB given to the printing process from OS
             0 MiB allocation reported by mallinfo(arena+hblkhd)
        492551 MiB available memory on the node where the printing process lives
------------------
     ethr =  2.18E-08,  avg # of iterations =  4.6

     total cpu time spent up to now is       16.9 secs

     total energy              =    -262.60811923 Ry
     estimated scf accuracy    <       0.00000021 Ry

     iteration # 12     ecut=    40.00 Ry     beta= 0.70
     Davidson diagonalization with overlap

---- Real-time Memory Report at c_bands before calling an iterative solver
           198 MiB given to the printing process from OS
             0 MiB allocation reported by mallinfo(arena+hblkhd)
        492619 MiB available memory on the node where the printing process lives
------------------
     ethr =  5.19E-10,  avg # of iterations =  4.5

     total cpu time spent up to now is       18.4 secs

     End of self-consistent calculation

          k = 0.1000 0.1000 0.0949 (  1937 PWs)   bands (ev):

   -46.7762 -23.1026 -22.9754 -22.9751 -15.1100  -7.5168  -6.9605  -6.7997
    -0.3301  -0.3055  -0.1724   7.0645   7.2396   7.3154   7.8801   7.9323
     8.5947   8.6014   9.0701   9.2868  12.0962  12.4352  12.4571  14.3992

     occupation numbers 
     1.0000   1.0000   1.0000   1.0000   1.0000   1.0000   1.0000   1.0000
     1.0000   1.0000   1.0000   1.0000   1.0000   1.0000   1.0000   1.0000
     1.0000   1.0000   1.0000   1.0000   0.0000   0.0000   0.0000   0.0000

          k = 0.1000 0.1000 0.2848 (  1958 PWs)   bands (ev):

   -46.7760 -23.1191 -22.9748 -22.9747 -15.0717  -7.5124  -6.9638  -6.7943
    -0.2855  -0.2395  -0.0535   6.2873   6.9570   7.1356   7.4634   7.6123
     8.3732   8.4812   8.8819   9.1198  12.1575  12.9544  13.0054  14.3852

     occupation numbers 
     1.0000   1.0000   1.0000   1.0000   1.0000   1.0000   1.0000   1.0000
     1.0000   1.0000   1.0000   1.0000   1.0000   1.0000   1.0000   1.0000
     1.0000   1.0000   1.0000   1.0000   0.0000   0.0000   0.0000   0.0000

          k = 0.1000 0.1000-0.4746 (  1968 PWs)   bands (ev):

   -46.7759 -23.1293 -22.9745 -22.9744 -15.0476  -7.5473  -6.9167  -6.7946
    -0.2733  -0.1310  -0.0349   5.8464   6.8335   7.0167   7.1793   7.4696
     8.3446   8.3694   8.7391   9.0363  12.1889  13.2865  13.3445  14.3833

     occupation numbers 
     1.0000   1.0000   1.0000   1.0000   1.0000   1.0000   1.0000   1.0000
     1.0000   1.0000   1.0000   1.0000   1.0000   1.0000   1.0000   1.0000
     1.0000   1.0000   1.0000   1.0000   0.0000   0.0000   0.0000   0.0000

          k = 0.1000 0.1000-0.2848 (  1958 PWs)   bands (ev):

   -46.7760 -23.1191 -22.9748 -22.9747 -15.0717  -7.5124  -6.9638  -6.7943
    -0.2855  -0.2395  -0.0535   6.2873   6.9570   7.1356   7.4634   7.6123
     8.3732   8.4812   8.8819   9.1198  12.1575  12.9544  13.0054  14.3852

     occupation numbers 
     1.0000   1.0000   1.0000   1.0000   1.0000   1.0000   1.0000   1.0000
     1.0000   1.0000   1.0000   1.0000   1.0000   1.0000   1.0000   1.0000
     1.0000   1.0000   1.0000   1.0000   0.0000   0.0000   0.0000   0.0000

          k = 0.1000 0.1000-0.0949 (  1937 PWs)   bands (ev):

   -46.7762 -23.1026 -22.9754 -22.9751 -15.1100  -7.5168  -6.9605  -6.7997
    -0.3301  -0.3055  -0.1724   7.0645   7.2396   7.3154   7.8801   7.9323
     8.5947   8.6014   9.0701   9.2868  12.0962  12.4352  12.4571  14.4015

     occupation numbers 
     1.0000   1.0000   1.0000   1.0000   1.0000   1.0000   1.0000   1.0000
     1.0000   1.0000   1.0000   1.0000   1.0000   1.0000   1.0000   1.0000
     1.0000   1.0000   1.0000   1.0000   0.0000   0.0000   0.0000   0.0000

          k = 0.1000 0.3000 0.0949 (  1943 PWs)   bands (ev):

   -46.7757 -23.1014 -23.0053 -22.9741 -15.0526  -7.5431  -6.9089  -6.7192
    -0.3014  -0.2664  -0.0661   6.2959   6.9554   7.1560   7.4338   7.5900
     7.9969   8.5131   8.7944   8.9465  12.4606  12.9444  12.9714  14.4120

     occupation numbers 
     1.0000   1.0000   1.0000   1.0000   1.0000   1.0000   1.0000   1.0000
     1.0000   1.0000   1.0000   1.0000   1.0000   1.0000   1.0000   1.0000
     1.0000   1.0000   1.0000   1.0000   0.0000   0.0000   0.0000   0.0000

          k = 0.1000 0.3000 0.2848 (  1955 PWs)   bands (ev):

   -46.7755 -23.1176 -23.0044 -22.9737 -15.0232  -7.3799  -6.9733  -6.7372
    -0.3910  -0.2826  -0.0300   6.0999   6.3353   6.7925   7.1675   7.4012
     7.9842   8.5629   8.8641   9.0812  12.9402  13.0700  13.2183  14.8989

     occupation numbers 
     1.0000   1.0000   1.0000   1.0000   1.0000   1.0000   1.0000   1.0000
     1.0000   1.0000   1.0000   1.0000   1.0000   1.0000   1.0000   1.0000
     1.0000   1.0000   1.0000   1.0000   0.0000   0.0000   0.0000   0.0000

          k = 0.1000 0.3000-0.4746 (  1954 PWs)   bands (ev):

   -46.7753 -23.1275 -23.0039 -22.9733 -15.0047  -7.2803  -7.0075  -6.7411
    -0.4280  -0.2317  -0.0908   5.8263   6.1121   6.5994   7.0652   7.2830
     8.0810   8.5677   8.8584   9.1639  13.0148  13.3582  13.4611  14.9422

     occupation numbers 
     1.0000   1.0000   1.0000   1.0000   1.0000   1.0000   1.0000   1.0000
     1.0000   1.0000   1.0000   1.0000   1.0000   1.0000   1.0000   1.0000
     1.0000   1.0000   1.0000   1.0000   0.0000   0.0000   0.0000   0.0000

          k = 0.1000 0.3000-0.2848 (  1955 PWs)   bands (ev):

   -46.7755 -23.1176 -23.0044 -22.9737 -15.0232  -7.3799  -6.9733  -6.7372
    -0.3910  -0.2826  -0.0300   6.0999   6.3353   6.7925   7.1675   7.4012
     7.9842   8.5629   8.8641   9.0812  12.9402  13.0700  13.2183  14.8989

     occupation numbers 
     1.0000   1.0000   1.0000   1.0000   1.0000   1.0000   1.0000   1.0000
     1.0000   1.0000   1.0000   1.0000   1.0000   1.0000   1.0000   1.0000
     1.0000   1.0000   1.0000   1.0000   0.0000   0.0000   0.0000   0.0000

          k = 0.1000 0.3000-0.0949 (  1943 PWs)   bands (ev):

   -46.7757 -23.1014 -23.0053 -22.9741 -15.0526  -7.5431  -6.9089  -6.7192
    -0.3014  -0.2664  -0.0661   6.2959   6.9554   7.1560   7.4338   7.5900
     7.9969   8.5131   8.7944   8.9465  12.4606  12.9444  12.9714  14.4120

     occupation numbers 
     1.0000   1.0000   1.0000   1.0000   1.0000   1.0000   1.0000   1.0000
     1.0000   1.0000   1.0000   1.0000   1.0000   1.0000   1.0000   1.0000
     1.0000   1.0000   1.0000   1.0000   0.0000   0.0000   0.0000   0.0000

          k = 0.1000-0.5000 0.0949 (  1938 PWs)   bands (ev):

   -46.7753 -23.1006 -23.0237 -22.9735 -15.0164  -7.6031  -6.8814  -6.6023
    -0.2549  -0.1602  -0.1126   5.8207   6.9397   6.9489   7.0878   7.4419
     7.9852   8.3869   8.6244   8.6512  12.5052  13.4196  13.5056  14.3393

     occupation numbers 
     1.0000   1.0000   1.0000   1.0000   1.0000   1.0000   1.0000   1.0000
     1.0000   1.0000   1.0000   1.0000   1.0000   1.0000   1.0000   1.0000
     1.0000   1.0000   1.0000   1.0000   0.0000   0.0000   0.0000   0.0000

          k = 0.1000-0.5000 0.2848 (  1962 PWs)   bands (ev):

   -46.7752 -23.1166 -23.0227 -22.9730 -14.9926  -7.3681  -6.9262  -6.6854
    -0.3642  -0.3400  -0.0753   5.7354   6.2384   6.4472   6.9734   7.3975
     7.8213   8.6041   8.7129   9.1478  13.0481  13.4573  13.5936  14.9332

     occupation numbers 
     1.0000   1.0000   1.0000   1.0000   1.0000   1.0000   1.0000   1.0000
     1.0000   1.0000   1.0000   1.0000   1.0000   1.0000   1.0000   1.0000
     1.0000   1.0000   1.0000   1.0000   0.0000   0.0000   0.0000   0.0000

          k = 0.1000-0.5000-0.4746 (  1956 PWs)   bands (ev):

   -46.7750 -23.1263 -23.0219 -22.9726 -14.9778  -7.0948  -7.0659  -6.7313
    -0.4827  -0.3458  -0.0955   5.6461   5.9851   6.1105   6.9492   7.2927
     7.7670   8.7800   8.9256   9.3815  13.3853  13.4933  13.7290  14.9915

     occupation numbers 
     1.0000   1.0000   1.0000   1.0000   1.0000   1.0000   1.0000   1.0000
     1.0000   1.0000   1.0000   1.0000   1.0000   1.0000   1.0000   1.0000
     1.0000   1.0000   1.0000   1.0000   0.0000   0.0000   0.0000   0.0000

          k = 0.1000-0.5000-0.2848 (  1962 PWs)   bands (ev):

   -46.7752 -23.1166 -23.0227 -22.9730 -14.9926  -7.3681  -6.9262  -6.6854
    -0.3642  -0.3400  -0.0753   5.7354   6.2384   6.4472   6.9734   7.3975
     7.8213   8.6041   8.7129   9.1478  13.0481  13.4573  13.5936  14.9332

     occupation numbers 
     1.0000   1.0000   1.0000   1.0000   1.0000   1.0000   1.0000   1.0000
     1.0000   1.0000   1.0000   1.0000   1.0000   1.0000   1.0000   1.0000
     1.0000   1.0000   1.0000   1.0000   0.0000   0.0000   0.0000   0.0000

          k = 0.1000-0.5000-0.0949 (  1938 PWs)   bands (ev):

   -46.7753 -23.1006 -23.0237 -22.9735 -15.0164  -7.6031  -6.8814  -6.6023
    -0.2549  -0.1602  -0.1126   5.8207   6.9397   6.9489   7.0878   7.4419
     7.9852   8.3869   8.6244   8.6512  12.5052  13.4196  13.5056  14.3393

     occupation numbers 
     1.0000   1.0000   1.0000   1.0000   1.0000   1.0000   1.0000   1.0000
     1.0000   1.0000   1.0000   1.0000   1.0000   1.0000   1.0000   1.0000
     1.0000   1.0000   1.0000   1.0000   0.0000   0.0000   0.0000   0.0000

          k = 0.1000-0.3000 0.0949 (  1943 PWs)   bands (ev):

   -46.7757 -23.1014 -23.0053 -22.9741 -15.0526  -7.5431  -6.9089  -6.7192
    -0.3014  -0.2664  -0.0661   6.2959   6.9554   7.1560   7.4338   7.5900
     7.9969   8.5131   8.7944   8.9465  12.4606  12.9444  12.9714  14.4120

     occupation numbers 
     1.0000   1.0000   1.0000   1.0000   1.0000   1.0000   1.0000   1.0000
     1.0000   1.0000   1.0000   1.0000   1.0000   1.0000   1.0000   1.0000
     1.0000   1.0000   1.0000   1.0000   0.0000   0.0000   0.0000   0.0000

          k = 0.1000-0.3000 0.2848 (  1955 PWs)   bands (ev):

   -46.7755 -23.1176 -23.0044 -22.9737 -15.0232  -7.3799  -6.9733  -6.7372
    -0.3910  -0.2826  -0.0300   6.0999   6.3353   6.7925   7.1675   7.4012
     7.9842   8.5629   8.8641   9.0812  12.9402  13.0700  13.2183  14.8989

     occupation numbers 
     1.0000   1.0000   1.0000   1.0000   1.0000   1.0000   1.0000   1.0000
     1.0000   1.0000   1.0000   1.0000   1.0000   1.0000   1.0000   1.0000
     1.0000   1.0000   1.0000   1.0000   0.0000   0.0000   0.0000   0.0000

          k = 0.1000-0.3000-0.4746 (  1954 PWs)   bands (ev):

   -46.7753 -23.1275 -23.0039 -22.9733 -15.0047  -7.2803  -7.0075  -6.7411
    -0.4280  -0.2317  -0.0908   5.8263   6.1121   6.5994   7.0652   7.2830
     8.0810   8.5677   8.8584   9.1639  13.0148  13.3582  13.4611  14.9422

     occupation numbers 
     1.0000   1.0000   1.0000   1.0000   1.0000   1.0000   1.0000   1.0000
     1.0000   1.0000   1.0000   1.0000   1.0000   1.0000   1.0000   1.0000
     1.0000   1.0000   1.0000   1.0000   0.0000   0.0000   0.0000   0.0000

          k = 0.1000-0.3000-0.2848 (  1955 PWs)   bands (ev):

   -46.7755 -23.1176 -23.0044 -22.9737 -15.0232  -7.3799  -6.9733  -6.7372
    -0.3910  -0.2826  -0.0300   6.0999   6.3353   6.7925   7.1675   7.4012
     7.9842   8.5629   8.8641   9.0812  12.9402  13.0700  13.2183  14.8989

     occupation numbers 
     1.0000   1.0000   1.0000   1.0000   1.0000   1.0000   1.0000   1.0000
     1.0000   1.0000   1.0000   1.0000   1.0000   1.0000   1.0000   1.0000
     1.0000   1.0000   1.0000   1.0000   0.0000   0.0000   0.0000   0.0000

          k = 0.1000-0.3000-0.0949 (  1943 PWs)   bands (ev):

   -46.7757 -23.1014 -23.0053 -22.9741 -15.0526  -7.5431  -6.9089  -6.7192
    -0.3014  -0.2664  -0.0661   6.2959   6.9554   7.1560   7.4338   7.5900
     7.9969   8.5131   8.7944   8.9465  12.4606  12.9444  12.9714  14.4120

     occupation numbers 
     1.0000   1.0000   1.0000   1.0000   1.0000   1.0000   1.0000   1.0000
     1.0000   1.0000   1.0000   1.0000   1.0000   1.0000   1.0000   1.0000
     1.0000   1.0000   1.0000   1.0000   0.0000   0.0000   0.0000   0.0000

          k = 0.1000-0.1000 0.0949 (  1937 PWs)   bands (ev):

   -46.7762 -23.1026 -22.9754 -22.9751 -15.1100  -7.5168  -6.9605  -6.7997
    -0.3301  -0.3055  -0.1724   7.0645   7.2396   7.3154   7.8801   7.9323
     8.5947   8.6014   9.0701   9.2868  12.0962  12.4352  12.4571  14.4003

     occupation numbers 
     1.0000   1.0000   1.0000   1.0000   1.0000   1.0000   1.0000   1.0000
     1.0000   1.0000   1.0000   1.0000   1.0000   1.0000   1.0000   1.0000
     1.0000   1.0000   1.0000   1.0000   0.0000   0.0000   0.0000   0.0000

          k = 0.1000-0.1000 0.2848 (  1958 PWs)   bands (ev):

   -46.7760 -23.1191 -22.9748 -22.9747 -15.0717  -7.5124  -6.9638  -6.7943
    -0.2855  -0.2395  -0.0535   6.2873   6.9570   7.1356   7.4634   7.6123
     8.3732   8.4812   8.8819   9.1198  12.1575  12.9544  13.0054  14.3852

     occupation numbers 
     1.0000   1.0000   1.0000   1.0000   1.0000   1.0000   1.0000   1.0000
     1.0000   1.0000   1.0000   1.0000   1.0000   1.0000   1.0000   1.0000
     1.0000   1.0000   1.0000   1.0000   0.0000   0.0000   0.0000   0.0000

          k = 0.1000-0.1000-0.4746 (  1968 PWs)   bands (ev):

   -46.7759 -23.1293 -22.9745 -22.9744 -15.0476  -7.5473  -6.9167  -6.7946
    -0.2733  -0.1310  -0.0349   5.8464   6.8335   7.0167   7.1793   7.4696
     8.3446   8.3694   8.7391   9.0363  12.1889  13.2865  13.3445  14.3833

     occupation numbers 
     1.0000   1.0000   1.0000   1.0000   1.0000   1.0000   1.0000   1.0000
     1.0000   1.0000   1.0000   1.0000   1.0000   1.0000   1.0000   1.0000
     1.0000   1.0000   1.0000   1.0000   0.0000   0.0000   0.0000   0.0000

          k = 0.1000-0.1000-0.2848 (  1958 PWs)   bands (ev):

   -46.7760 -23.1191 -22.9748 -22.9747 -15.0717  -7.5124  -6.9638  -6.7943
    -0.2855  -0.2395  -0.0535   6.2873   6.9570   7.1356   7.4634   7.6123
     8.3732   8.4812   8.8819   9.1198  12.1575  12.9544  13.0054  14.3852

     occupation numbers 
     1.0000   1.0000   1.0000   1.0000   1.0000   1.0000   1.0000   1.0000
     1.0000   1.0000   1.0000   1.0000   1.0000   1.0000   1.0000   1.0000
     1.0000   1.0000   1.0000   1.0000   0.0000   0.0000   0.0000   0.0000

          k = 0.1000-0.1000-0.0949 (  1937 PWs)   bands (ev):

   -46.7762 -23.1026 -22.9754 -22.9751 -15.1100  -7.5168  -6.9605  -6.7997
    -0.3301  -0.3055  -0.1724   7.0645   7.2396   7.3154   7.8801   7.9323
     8.5947   8.6014   9.0701   9.2868  12.0962  12.4352  12.4571  14.4005

     occupation numbers 
     1.0000   1.0000   1.0000   1.0000   1.0000   1.0000   1.0000   1.0000
     1.0000   1.0000   1.0000   1.0000   1.0000   1.0000   1.0000   1.0000
     1.0000   1.0000   1.0000   1.0000   0.0000   0.0000   0.0000   0.0000

          k = 0.3000 0.1000 0.0949 (  1943 PWs)   bands (ev):

   -46.7757 -23.1014 -23.0053 -22.9741 -15.0526  -7.5431  -6.9089  -6.7192
    -0.3014  -0.2664  -0.0661   6.2958   6.9554   7.1561   7.4338   7.5900
     7.9969   8.5131   8.7944   8.9465  12.4606  12.9444  12.9714  14.4119

     occupation numbers 
     1.0000   1.0000   1.0000   1.0000   1.0000   1.0000   1.0000   1.0000
     1.0000   1.0000   1.0000   1.0000   1.0000   1.0000   1.0000   1.0000
     1.0000   1.0000   1.0000   1.0000   0.0000   0.0000   0.0000   0.0000

          k = 0.3000 0.1000 0.2848 (  1955 PWs)   bands (ev):

   -46.7755 -23.1176 -23.0044 -22.9737 -15.0232  -7.3798  -6.9733  -6.7373
    -0.3910  -0.2826  -0.0300   6.0999   6.3353   6.7925   7.1675   7.4012
     7.9843   8.5629   8.8641   9.0812  12.9402  13.0700  13.2183  14.8989

     occupation numbers 
     1.0000   1.0000   1.0000   1.0000   1.0000   1.0000   1.0000   1.0000
     1.0000   1.0000   1.0000   1.0000   1.0000   1.0000   1.0000   1.0000
     1.0000   1.0000   1.0000   1.0000   0.0000   0.0000   0.0000   0.0000

          k = 0.3000 0.1000-0.4746 (  1954 PWs)   bands (ev):

   -46.7753 -23.1275 -23.0039 -22.9733 -15.0047  -7.2803  -7.0075  -6.7411
    -0.4280  -0.2317  -0.0908   5.8263   6.1121   6.5994   7.0652   7.2830
     8.0810   8.5677   8.8584   9.1638  13.0148  13.3582  13.4611  14.9422

     occupation numbers 
     1.0000   1.0000   1.0000   1.0000   1.0000   1.0000   1.0000   1.0000
     1.0000   1.0000   1.0000   1.0000   1.0000   1.0000   1.0000   1.0000
     1.0000   1.0000   1.0000   1.0000   0.0000   0.0000   0.0000   0.0000

          k = 0.3000 0.1000-0.2848 (  1955 PWs)   bands (ev):

   -46.7755 -23.1176 -23.0044 -22.9737 -15.0232  -7.3798  -6.9733  -6.7373
    -0.3910  -0.2826  -0.0300   6.0999   6.3353   6.7925   7.1675   7.4012
     7.9843   8.5629   8.8641   9.0812  12.9402  13.0700  13.2183  14.8989

     occupation numbers 
     1.0000   1.0000   1.0000   1.0000   1.0000   1.0000   1.0000   1.0000
     1.0000   1.0000   1.0000   1.0000   1.0000   1.0000   1.0000   1.0000
     1.0000   1.0000   1.0000   1.0000   0.0000   0.0000   0.0000   0.0000

          k = 0.3000 0.1000-0.0949 (  1943 PWs)   bands (ev):

   -46.7757 -23.1014 -23.0053 -22.9741 -15.0526  -7.5431  -6.9089  -6.7192
    -0.3014  -0.2664  -0.0661   6.2958   6.9554   7.1561   7.4338   7.5900
     7.9969   8.5131   8.7944   8.9465  12.4606  12.9444  12.9714  14.4120

     occupation numbers 
     1.0000   1.0000   1.0000   1.0000   1.0000   1.0000   1.0000   1.0000
     1.0000   1.0000   1.0000   1.0000   1.0000   1.0000   1.0000   1.0000
     1.0000   1.0000   1.0000   1.0000   0.0000   0.0000   0.0000   0.0000

          k = 0.3000 0.3000 0.0949 (  1939 PWs)   bands (ev):

   -46.7751 -23.1002 -23.0041 -23.0036 -15.0060  -7.4192  -6.7954  -6.7476
    -0.4721  -0.3172  -0.0753   6.0377   6.5301   6.6742   7.1176   7.3469
     7.6112   8.6019   8.7374   9.4384  12.8523  13.1197  13.3212  14.6131

     occupation numbers 
     1.0000   1.0000   1.0000   1.0000   1.0000   1.0000   1.0000   1.0000
     1.0000   1.0000   1.0000   1.0000   1.0000   1.0000   1.0000   1.0000
     1.0000   1.0000   1.0000   1.0000   0.0000   0.0000   0.0000   0.0000

          k = 0.3000 0.3000 0.2848 (  1941 PWs)   bands (ev):

   -46.7749 -23.1161 -23.0033 -23.0029 -14.9813  -7.2147  -6.8661  -6.7060
    -0.6364  -0.5288  -0.1608   5.9511   6.4645   6.5292   6.9461   7.2528
     7.3176   8.8892   9.0377   9.3675  13.2945  13.3608  13.4410  15.8452

     occupation numbers 
     1.0000   1.0000   1.0000   1.0000   1.0000   1.0000   1.0000   1.0000
     1.0000   1.0000   1.0000   1.0000   1.0000   1.0000   1.0000   1.0000
     1.0000   1.0000   1.0000   1.0000   0.0000   0.0000   0.0000   0.0000

          k = 0.3000 0.3000-0.4746 (  1940 PWs)   bands (ev):

   -46.7747 -23.1259 -23.0028 -23.0024 -14.9659  -7.0093  -6.9886  -6.6749
    -0.7359  -0.4960  -0.3778   5.7858   6.3135   6.5334   6.7308   7.3242
     7.3856   9.0543   9.2238   9.2798  13.4508  13.5706  13.6226  16.1609

     occupation numbers 
     1.0000   1.0000   1.0000   1.0000   1.0000   1.0000   1.0000   1.0000
     1.0000   1.0000   1.0000   1.0000   1.0000   1.0000   1.0000   1.0000
     1.0000   1.0000   1.0000   1.0000   0.0000   0.0000   0.0000   0.0000

          k = 0.3000 0.3000-0.2848 (  1941 PWs)   bands (ev):

   -46.7749 -23.1161 -23.0033 -23.0029 -14.9813  -7.2147  -6.8661  -6.7060
    -0.6364  -0.5288  -0.1608   5.9511   6.4645   6.5292   6.9461   7.2528
     7.3176   8.8892   9.0377   9.3675  13.2945  13.3608  13.4410  15.8451

     occupation numbers 
     1.0000   1.0000   1.0000   1.0000   1.0000   1.0000   1.0000   1.0000
     1.0000   1.0000   1.0000   1.0000   1.0000   1.0000   1.0000   1.0000
     1.0000   1.0000   1.0000   1.0000   0.0000   0.0000   0.0000   0.0000

          k = 0.3000 0.3000-0.0949 (  1939 PWs)   bands (ev):

   -46.7751 -23.1002 -23.0041 -23.0036 -15.0060  -7.4192  -6.7954  -6.7476
    -0.4721  -0.3172  -0.0753   6.0377   6.5301   6.6742   7.1176   7.3469
     7.6112   8.6019   8.7374   9.4384  12.8523  13.1197  13.3212  14.6131

     occupation numbers 
     1.0000   1.0000   1.0000   1.0000   1.0000   1.0000   1.0000   1.0000
     1.0000   1.0000   1.0000   1.0000   1.0000   1.0000   1.0000   1.0000
     1.0000   1.0000   1.0000   1.0000   0.0000   0.0000   0.0000   0.0000

          k = 0.3000-0.5000 0.0949 (  1948 PWs)   bands (ev):

   -46.7748 -23.0995 -23.0221 -23.0030 -14.9767  -7.3779  -6.7862  -6.6726
    -0.4593  -0.4222  -0.1214   5.7054   6.2777   6.4189   6.9632   7.1708
     7.7607   8.5616   8.6383   9.5407  12.9909  13.5353  13.6635  14.4891

     occupation numbers 
     1.0000   1.0000   1.0000   1.0000   1.0000   1.0000   1.0000   1.0000
     1.0000   1.0000   1.0000   1.0000   1.0000   1.0000   1.0000   1.0000
     1.0000   1.0000   1.0000   1.0000   0.0000   0.0000   0.0000   0.0000

          k = 0.3000-0.5000 0.2848 (  1940 PWs)   bands (ev):

   -46.7745 -23.1152 -23.0211 -23.0022 -14.9550  -7.1625  -6.7729  -6.6644
    -0.6789  -0.6620  -0.3569   5.6764   6.4046   6.5947   6.6083   7.2182
     7.3352   8.8790   9.1162   9.5404  13.4130  13.7047  13.7556  15.7095

     occupation numbers 
     1.0000   1.0000   1.0000   1.0000   1.0000   1.0000   1.0000   1.0000
     1.0000   1.0000   1.0000   1.0000   1.0000   1.0000   1.0000   1.0000
     1.0000   1.0000   1.0000   1.0000   0.0000   0.0000   0.0000   0.0000

          k = 0.3000-0.5000-0.4746 (  1920 PWs)   bands (ev):

   -46.7743 -23.1247 -23.0204 -23.0017 -14.9414  -6.9803  -6.7986  -6.6551
    -0.8027  -0.7118  -0.5894   5.5932   6.1368   6.5305   6.8475   7.2364
     7.2927   9.1727   9.4438   9.5736  13.6628  13.8022  13.8837  15.9289

     occupation numbers 
     1.0000   1.0000   1.0000   1.0000   1.0000   1.0000   1.0000   1.0000
     1.0000   1.0000   1.0000   1.0000   1.0000   1.0000   1.0000   1.0000
     1.0000   1.0000   1.0000   1.0000   0.0000   0.0000   0.0000   0.0000

          k = 0.3000-0.5000-0.2848 (  1940 PWs)   bands (ev):

   -46.7745 -23.1152 -23.0211 -23.0022 -14.9550  -7.1625  -6.7729  -6.6644
    -0.6789  -0.6620  -0.3569   5.6764   6.4046   6.5947   6.6083   7.2182
     7.3352   8.8790   9.1162   9.5404  13.4130  13.7047  13.7556  15.7095

     occupation numbers 
     1.0000   1.0000   1.0000   1.0000   1.0000   1.0000   1.0000   1.0000
     1.0000   1.0000   1.0000   1.0000   1.0000   1.0000   1.0000   1.0000
     1.0000   1.0000   1.0000   1.0000   0.0000   0.0000   0.0000   0.0000

          k = 0.3000-0.5000-0.0949 (  1948 PWs)   bands (ev):

   -46.7748 -23.0995 -23.0221 -23.0030 -14.9767  -7.3779  -6.7862  -6.6726
    -0.4593  -0.4222  -0.1214   5.7054   6.2777   6.4189   6.9632   7.1708
     7.7607   8.5616   8.6383   9.5407  12.9909  13.5353  13.6635  14.4891

     occupation numbers 
     1.0000   1.0000   1.0000   1.0000   1.0000   1.0000   1.0000   1.0000
     1.0000   1.0000   1.0000   1.0000   1.0000   1.0000   1.0000   1.0000
     1.0000   1.0000   1.0000   1.0000   0.0000   0.0000   0.0000   0.0000

          k = 0.3000-0.3000 0.0949 (  1939 PWs)   bands (ev):

   -46.7751 -23.1002 -23.0041 -23.0036 -15.0060  -7.4192  -6.7954  -6.7476
    -0.4721  -0.3172  -0.0753   6.0377   6.5301   6.6742   7.1176   7.3469
     7.6112   8.6019   8.7374   9.4384  12.8523  13.1197  13.3212  14.6132

     occupation numbers 
     1.0000   1.0000   1.0000   1.0000   1.0000   1.0000   1.0000   1.0000
     1.0000   1.0000   1.0000   1.0000   1.0000   1.0000   1.0000   1.0000
     1.0000   1.0000   1.0000   1.0000   0.0000   0.0000   0.0000   0.0000

          k = 0.3000-0.3000 0.2848 (  1941 PWs)   bands (ev):

   -46.7749 -23.1161 -23.0033 -23.0029 -14.9813  -7.2147  -6.8661  -6.7060
    -0.6364  -0.5288  -0.1608   5.9511   6.4645   6.5292   6.9461   7.2528
     7.3176   8.8892   9.0377   9.3675  13.2945  13.3608  13.4410  15.8447

     occupation numbers 
     1.0000   1.0000   1.0000   1.0000   1.0000   1.0000   1.0000   1.0000
     1.0000   1.0000   1.0000   1.0000   1.0000   1.0000   1.0000   1.0000
     1.0000   1.0000   1.0000   1.0000   0.0000   0.0000   0.0000   0.0000

          k = 0.3000-0.3000-0.4746 (  1940 PWs)   bands (ev):

   -46.7747 -23.1259 -23.0028 -23.0024 -14.9659  -7.0093  -6.9886  -6.6749
    -0.7359  -0.4960  -0.3778   5.7858   6.3135   6.5334   6.7308   7.3242
     7.3856   9.0543   9.2238   9.2798  13.4508  13.5706  13.6226  16.1611

     occupation numbers 
     1.0000   1.0000   1.0000   1.0000   1.0000   1.0000   1.0000   1.0000
     1.0000   1.0000   1.0000   1.0000   1.0000   1.0000   1.0000   1.0000
     1.0000   1.0000   1.0000   1.0000   0.0000   0.0000   0.0000   0.0000

          k = 0.3000-0.3000-0.2848 (  1941 PWs)   bands (ev):

   -46.7749 -23.1161 -23.0033 -23.0029 -14.9813  -7.2147  -6.8661  -6.7060
    -0.6364  -0.5288  -0.1608   5.9511   6.4645   6.5292   6.9461   7.2528
     7.3176   8.8892   9.0377   9.3675  13.2945  13.3608  13.4410  15.8448

     occupation numbers 
     1.0000   1.0000   1.0000   1.0000   1.0000   1.0000   1.0000   1.0000
     1.0000   1.0000   1.0000   1.0000   1.0000   1.0000   1.0000   1.0000
     1.0000   1.0000   1.0000   1.0000   0.0000   0.0000   0.0000   0.0000

          k = 0.3000-0.3000-0.0949 (  1939 PWs)   bands (ev):

   -46.7751 -23.1002 -23.0041 -23.0036 -15.0060  -7.4192  -6.7954  -6.7476
    -0.4721  -0.3172  -0.0753   6.0377   6.5301   6.6742   7.1176   7.3469
     7.6112   8.6019   8.7374   9.4384  12.8523  13.1197  13.3212  14.6131

     occupation numbers 
     1.0000   1.0000   1.0000   1.0000   1.0000   1.0000   1.0000   1.0000
     1.0000   1.0000   1.0000   1.0000   1.0000   1.0000   1.0000   1.0000
     1.0000   1.0000   1.0000   1.0000   0.0000   0.0000   0.0000   0.0000

          k = 0.3000-0.1000 0.0949 (  1943 PWs)   bands (ev):

   -46.7757 -23.1014 -23.0053 -22.9741 -15.0526  -7.5431  -6.9089  -6.7192
    -0.3014  -0.2664  -0.0661   6.2958   6.9554   7.1561   7.4338   7.5900
     7.9969   8.5131   8.7944   8.9465  12.4606  12.9444  12.9714  14.4120

     occupation numbers 
     1.0000   1.0000   1.0000   1.0000   1.0000   1.0000   1.0000   1.0000
     1.0000   1.0000   1.0000   1.0000   1.0000   1.0000   1.0000   1.0000
     1.0000   1.0000   1.0000   1.0000   0.0000   0.0000   0.0000   0.0000

          k = 0.3000-0.1000 0.2848 (  1955 PWs)   bands (ev):

   -46.7755 -23.1176 -23.0044 -22.9737 -15.0232  -7.3798  -6.9733  -6.7373
    -0.3910  -0.2826  -0.0300   6.0999   6.3353   6.7925   7.1675   7.4012
     7.9843   8.5629   8.8641   9.0812  12.9402  13.0700  13.2183  14.8989

     occupation numbers 
     1.0000   1.0000   1.0000   1.0000   1.0000   1.0000   1.0000   1.0000
     1.0000   1.0000   1.0000   1.0000   1.0000   1.0000   1.0000   1.0000
     1.0000   1.0000   1.0000   1.0000   0.0000   0.0000   0.0000   0.0000

          k = 0.3000-0.1000-0.4746 (  1954 PWs)   bands (ev):

   -46.7753 -23.1275 -23.0039 -22.9733 -15.0047  -7.2803  -7.0075  -6.7411
    -0.4280  -0.2317  -0.0908   5.8263   6.1121   6.5994   7.0652   7.2830
     8.0810   8.5677   8.8584   9.1638  13.0148  13.3582  13.4611  14.9422

     occupation numbers 
     1.0000   1.0000   1.0000   1.0000   1.0000   1.0000   1.0000   1.0000
     1.0000   1.0000   1.0000   1.0000   1.0000   1.0000   1.0000   1.0000
     1.0000   1.0000   1.0000   1.0000   0.0000   0.0000   0.0000   0.0000

          k = 0.3000-0.1000-0.2848 (  1955 PWs)   bands (ev):

   -46.7755 -23.1176 -23.0044 -22.9737 -15.0232  -7.3798  -6.9733  -6.7373
    -0.3910  -0.2826  -0.0300   6.0999   6.3353   6.7925   7.1675   7.4012
     7.9843   8.5629   8.8641   9.0812  12.9402  13.0700  13.2183  14.8989

     occupation numbers 
     1.0000   1.0000   1.0000   1.0000   1.0000   1.0000   1.0000   1.0000
     1.0000   1.0000   1.0000   1.0000   1.0000   1.0000   1.0000   1.0000
     1.0000   1.0000   1.0000   1.0000   0.0000   0.0000   0.0000   0.0000

          k = 0.3000-0.1000-0.0949 (  1943 PWs)   bands (ev):

   -46.7757 -23.1014 -23.0053 -22.9741 -15.0526  -7.5431  -6.9089  -6.7192
    -0.3014  -0.2664  -0.0661   6.2958   6.9554   7.1561   7.4338   7.5900
     7.9969   8.5131   8.7944   8.9465  12.4606  12.9444  12.9714  14.4120

     occupation numbers 
     1.0000   1.0000   1.0000   1.0000   1.0000   1.0000   1.0000   1.0000
     1.0000   1.0000   1.0000   1.0000   1.0000   1.0000   1.0000   1.0000
     1.0000   1.0000   1.0000   1.0000   0.0000   0.0000   0.0000   0.0000

          k =-0.5000 0.1000 0.0949 (  1938 PWs)   bands (ev):

   -46.7753 -23.1006 -23.0237 -22.9735 -15.0164  -7.6031  -6.8814  -6.6023
    -0.2549  -0.1602  -0.1126   5.8207   6.9398   6.9489   7.0878   7.4419
     7.9852   8.3868   8.6244   8.6513  12.5052  13.4196  13.5056  14.3393

     occupation numbers 
     1.0000   1.0000   1.0000   1.0000   1.0000   1.0000   1.0000   1.0000
     1.0000   1.0000   1.0000   1.0000   1.0000   1.0000   1.0000   1.0000
     1.0000   1.0000   1.0000   1.0000   0.0000   0.0000   0.0000   0.0000

          k =-0.5000 0.1000 0.2848 (  1962 PWs)   bands (ev):

   -46.7752 -23.1166 -23.0227 -22.9730 -14.9926  -7.3681  -6.9261  -6.6855
    -0.3642  -0.3400  -0.0753   5.7354   6.2384   6.4472   6.9734   7.3975
     7.8213   8.6041   8.7130   9.1478  13.0480  13.4573  13.5936  14.9332

     occupation numbers 
     1.0000   1.0000   1.0000   1.0000   1.0000   1.0000   1.0000   1.0000
     1.0000   1.0000   1.0000   1.0000   1.0000   1.0000   1.0000   1.0000
     1.0000   1.0000   1.0000   1.0000   0.0000   0.0000   0.0000   0.0000

          k =-0.5000 0.1000-0.4746 (  1956 PWs)   bands (ev):

   -46.7750 -23.1263 -23.0219 -22.9726 -14.9778  -7.0947  -7.0659  -6.7314
    -0.4827  -0.3458  -0.0955   5.6461   5.9851   6.1104   6.9492   7.2927
     7.7670   8.7801   8.9257   9.3814  13.3853  13.4933  13.7290  14.9915

     occupation numbers 
     1.0000   1.0000   1.0000   1.0000   1.0000   1.0000   1.0000   1.0000
     1.0000   1.0000   1.0000   1.0000   1.0000   1.0000   1.0000   1.0000
     1.0000   1.0000   1.0000   1.0000   0.0000   0.0000   0.0000   0.0000

          k =-0.5000 0.1000-0.2848 (  1962 PWs)   bands (ev):

   -46.7752 -23.1166 -23.0227 -22.9730 -14.9926  -7.3681  -6.9261  -6.6855
    -0.3642  -0.3400  -0.0753   5.7354   6.2384   6.4472   6.9734   7.3975
     7.8213   8.6041   8.7130   9.1478  13.0480  13.4573  13.5936  14.9332

     occupation numbers 
     1.0000   1.0000   1.0000   1.0000   1.0000   1.0000   1.0000   1.0000
     1.0000   1.0000   1.0000   1.0000   1.0000   1.0000   1.0000   1.0000
     1.0000   1.0000   1.0000   1.0000   0.0000   0.0000   0.0000   0.0000

          k =-0.5000 0.1000-0.0949 (  1938 PWs)   bands (ev):

   -46.7753 -23.1006 -23.0237 -22.9735 -15.0164  -7.6031  -6.8814  -6.6023
    -0.2549  -0.1602  -0.1126   5.8207   6.9398   6.9489   7.0878   7.4419
     7.9852   8.3868   8.6244   8.6513  12.5052  13.4196  13.5056  14.3393

     occupation numbers 
     1.0000   1.0000   1.0000   1.0000   1.0000   1.0000   1.0000   1.0000
     1.0000   1.0000   1.0000   1.0000   1.0000   1.0000   1.0000   1.0000
     1.0000   1.0000   1.0000   1.0000   0.0000   0.0000   0.0000   0.0000

          k =-0.5000 0.3000 0.0949 (  1948 PWs)   bands (ev):

   -46.7748 -23.0995 -23.0221 -23.0030 -14.9767  -7.3779  -6.7861  -6.6727
    -0.4593  -0.4222  -0.1214   5.7054   6.2777   6.4189   6.9632   7.1708
     7.7607   8.5615   8.6383   9.5407  12.9909  13.5353  13.6634  14.4891

     occupation numbers 
     1.0000   1.0000   1.0000   1.0000   1.0000   1.0000   1.0000   1.0000
     1.0000   1.0000   1.0000   1.0000   1.0000   1.0000   1.0000   1.0000
     1.0000   1.0000   1.0000   1.0000   0.0000   0.0000   0.0000   0.0000

          k =-0.5000 0.3000 0.2848 (  1940 PWs)   bands (ev):

   -46.7745 -23.1152 -23.0211 -23.0022 -14.9550  -7.1625  -6.7729  -6.6645
    -0.6789  -0.6620  -0.3569   5.6764   6.4046   6.5947   6.6083   7.2182
     7.3352   8.8791   9.1161   9.5405  13.4130  13.7047  13.7556  15.7095

     occupation numbers 
     1.0000   1.0000   1.0000   1.0000   1.0000   1.0000   1.0000   1.0000
     1.0000   1.0000   1.0000   1.0000   1.0000   1.0000   1.0000   1.0000
     1.0000   1.0000   1.0000   1.0000   0.0000   0.0000   0.0000   0.0000

          k =-0.5000 0.3000-0.4746 (  1920 PWs)   bands (ev):

   -46.7743 -23.1247 -23.0204 -23.0017 -14.9414  -6.9803  -6.7985  -6.6552
    -0.8027  -0.7118  -0.5894   5.5931   6.1368   6.5305   6.8475   7.2364
     7.2927   9.1728   9.4437   9.5736  13.6628  13.8022  13.8837  15.9288

     occupation numbers 
     1.0000   1.0000   1.0000   1.0000   1.0000   1.0000   1.0000   1.0000
     1.0000   1.0000   1.0000   1.0000   1.0000   1.0000   1.0000   1.0000
     1.0000   1.0000   1.0000   1.0000   0.0000   0.0000   0.0000   0.0000

          k =-0.5000 0.3000-0.2848 (  1940 PWs)   bands (ev):

   -46.7745 -23.1152 -23.0211 -23.0022 -14.9550  -7.1625  -6.7729  -6.6645
    -0.6789  -0.6620  -0.3569   5.6764   6.4046   6.5947   6.6083   7.2182
     7.3352   8.8791   9.1161   9.5405  13.4130  13.7047  13.7556  15.7095

     occupation numbers 
     1.0000   1.0000   1.0000   1.0000   1.0000   1.0000   1.0000   1.0000
     1.0000   1.0000   1.0000   1.0000   1.0000   1.0000   1.0000   1.0000
     1.0000   1.0000   1.0000   1.0000   0.0000   0.0000   0.0000   0.0000

          k =-0.5000 0.3000-0.0949 (  1948 PWs)   bands (ev):

   -46.7748 -23.0995 -23.0221 -23.0030 -14.9767  -7.3779  -6.7861  -6.6727
    -0.4593  -0.4222  -0.1214   5.7054   6.2777   6.4189   6.9632   7.1708
     7.7607   8.5615   8.6383   9.5407  12.9909  13.5353  13.6634  14.4891

     occupation numbers 
     1.0000   1.0000   1.0000   1.0000   1.0000   1.0000   1.0000   1.0000
     1.0000   1.0000   1.0000   1.0000   1.0000   1.0000   1.0000   1.0000
     1.0000   1.0000   1.0000   1.0000   0.0000   0.0000   0.0000   0.0000

          k =-0.5000-0.5000 0.0949 (  1956 PWs)   bands (ev):

   -46.7745 -23.0988 -23.0210 -23.0210 -14.9517  -7.2396  -6.7181  -6.7181
    -0.5730  -0.5730  -0.1210   5.4911   5.9586   6.0807   6.9950   6.9951
     7.5985   8.7862   8.7862   9.8837  13.5600  13.5600  13.9019  14.2580

     occupation numbers 
     1.0000   1.0000   1.0000   1.0000   1.0000   1.0000   1.0000   1.0000
     1.0000   1.0000   1.0000   1.0000   1.0000   1.0000   1.0000   1.0000
     1.0000   1.0000   1.0000   1.0000   0.0000   0.0000   0.0000   0.0000

          k =-0.5000-0.5000 0.2848 (  1940 PWs)   bands (ev):

   -46.7742 -23.1143 -23.0202 -23.0202 -14.9314  -7.0540  -6.6570  -6.6569
    -0.8362  -0.8362  -0.5514   5.4874   6.0803   6.5972   6.7453   7.2164
     7.2164   9.1355   9.1356   9.8838  13.7889  13.7889  13.9933  15.4798

     occupation numbers 
     1.0000   1.0000   1.0000   1.0000   1.0000   1.0000   1.0000   1.0000
     1.0000   1.0000   1.0000   1.0000   1.0000   1.0000   1.0000   1.0000
     1.0000   1.0000   1.0000   1.0000   0.0000   0.0000   0.0000   0.0000

          k =-0.5000-0.5000-0.4746 (  1928 PWs)   bands (ev):

   -46.7740 -23.1239 -23.0197 -23.0197 -14.9187  -6.9333  -6.6166  -6.6166
    -0.9908  -0.9908  -0.7829   5.4245   6.0892   6.1448   7.2001   7.3108
     7.3108   9.4423   9.4424   9.9027  13.9455  13.9455  14.0599  15.8721

     occupation numbers 
     1.0000   1.0000   1.0000   1.0000   1.0000   1.0000   1.0000   1.0000
     1.0000   1.0000   1.0000   1.0000   1.0000   1.0000   1.0000   1.0000
     1.0000   1.0000   1.0000   1.0000   0.0000   0.0000   0.0000   0.0000

          k =-0.5000-0.5000-0.2848 (  1940 PWs)   bands (ev):

   -46.7742 -23.1143 -23.0202 -23.0202 -14.9314  -7.0540  -6.6570  -6.6569
    -0.8362  -0.8362  -0.5514   5.4874   6.0803   6.5972   6.7453   7.2164
     7.2164   9.1355   9.1356   9.8838  13.7889  13.7889  13.9933  15.4798

     occupation numbers 
     1.0000   1.0000   1.0000   1.0000   1.0000   1.0000   1.0000   1.0000
     1.0000   1.0000   1.0000   1.0000   1.0000   1.0000   1.0000   1.0000
     1.0000   1.0000   1.0000   1.0000   0.0000   0.0000   0.0000   0.0000

          k =-0.5000-0.5000-0.0949 (  1956 PWs)   bands (ev):

   -46.7745 -23.0988 -23.0210 -23.0210 -14.9517  -7.2396  -6.7181  -6.7181
    -0.5730  -0.5730  -0.1210   5.4911   5.9586   6.0807   6.9950   6.9951
     7.5985   8.7862   8.7862   9.8837  13.5600  13.5600  13.9019  14.2580

     occupation numbers 
     1.0000   1.0000   1.0000   1.0000   1.0000   1.0000   1.0000   1.0000
     1.0000   1.0000   1.0000   1.0000   1.0000   1.0000   1.0000   1.0000
     1.0000   1.0000   1.0000   1.0000   0.0000   0.0000   0.0000   0.0000

          k =-0.5000-0.3000 0.0949 (  1948 PWs)   bands (ev):

   -46.7748 -23.0995 -23.0221 -23.0030 -14.9767  -7.3779  -6.7861  -6.6727
    -0.4593  -0.4222  -0.1214   5.7054   6.2777   6.4189   6.9632   7.1708
     7.7607   8.5615   8.6383   9.5407  12.9909  13.5353  13.6634  14.4891

     occupation numbers 
     1.0000   1.0000   1.0000   1.0000   1.0000   1.0000   1.0000   1.0000
     1.0000   1.0000   1.0000   1.0000   1.0000   1.0000   1.0000   1.0000
     1.0000   1.0000   1.0000   1.0000   0.0000   0.0000   0.0000   0.0000

          k =-0.5000-0.3000 0.2848 (  1940 PWs)   bands (ev):

   -46.7745 -23.1152 -23.0211 -23.0022 -14.9550  -7.1625  -6.7729  -6.6645
    -0.6789  -0.6620  -0.3569   5.6764   6.4046   6.5947   6.6083   7.2182
     7.3352   8.8791   9.1161   9.5405  13.4130  13.7047  13.7556  15.7095

     occupation numbers 
     1.0000   1.0000   1.0000   1.0000   1.0000   1.0000   1.0000   1.0000
     1.0000   1.0000   1.0000   1.0000   1.0000   1.0000   1.0000   1.0000
     1.0000   1.0000   1.0000   1.0000   0.0000   0.0000   0.0000   0.0000

          k =-0.5000-0.3000-0.4746 (  1920 PWs)   bands (ev):

   -46.7743 -23.1247 -23.0204 -23.0017 -14.9414  -6.9803  -6.7985  -6.6552
    -0.8027  -0.7118  -0.5894   5.5931   6.1368   6.5305   6.8475   7.2364
     7.2927   9.1728   9.4437   9.5736  13.6628  13.8022  13.8837  15.9288

     occupation numbers 
     1.0000   1.0000   1.0000   1.0000   1.0000   1.0000   1.0000   1.0000
     1.0000   1.0000   1.0000   1.0000   1.0000   1.0000   1.0000   1.0000
     1.0000   1.0000   1.0000   1.0000   0.0000   0.0000   0.0000   0.0000

          k =-0.5000-0.3000-0.2848 (  1940 PWs)   bands (ev):

   -46.7745 -23.1152 -23.0211 -23.0022 -14.9550  -7.1625  -6.7729  -6.6645
    -0.6789  -0.6620  -0.3569   5.6764   6.4046   6.5947   6.6083   7.2182
     7.3352   8.8791   9.1161   9.5405  13.4130  13.7047  13.7556  15.7095

     occupation numbers 
     1.0000   1.0000   1.0000   1.0000   1.0000   1.0000   1.0000   1.0000
     1.0000   1.0000   1.0000   1.0000   1.0000   1.0000   1.0000   1.0000
     1.0000   1.0000   1.0000   1.0000   0.0000   0.0000   0.0000   0.0000

          k =-0.5000-0.3000-0.0949 (  1948 PWs)   bands (ev):

   -46.7748 -23.0995 -23.0221 -23.0030 -14.9767  -7.3779  -6.7861  -6.6727
    -0.4593  -0.4222  -0.1214   5.7054   6.2777   6.4189   6.9632   7.1708
     7.7607   8.5615   8.6383   9.5407  12.9909  13.5353  13.6634  14.4891

     occupation numbers 
     1.0000   1.0000   1.0000   1.0000   1.0000   1.0000   1.0000   1.0000
     1.0000   1.0000   1.0000   1.0000   1.0000   1.0000   1.0000   1.0000
     1.0000   1.0000   1.0000   1.0000   0.0000   0.0000   0.0000   0.0000

          k =-0.5000-0.1000 0.0949 (  1938 PWs)   bands (ev):

   -46.7753 -23.1006 -23.0237 -22.9735 -15.0164  -7.6031  -6.8814  -6.6023
    -0.2549  -0.1602  -0.1126   5.8207   6.9398   6.9489   7.0878   7.4419
     7.9852   8.3868   8.6244   8.6513  12.5052  13.4196  13.5056  14.3393

     occupation numbers 
     1.0000   1.0000   1.0000   1.0000   1.0000   1.0000   1.0000   1.0000
     1.0000   1.0000   1.0000   1.0000   1.0000   1.0000   1.0000   1.0000
     1.0000   1.0000   1.0000   1.0000   0.0000   0.0000   0.0000   0.0000

          k =-0.5000-0.1000 0.2848 (  1962 PWs)   bands (ev):

   -46.7752 -23.1166 -23.0227 -22.9730 -14.9926  -7.3681  -6.9261  -6.6855
    -0.3642  -0.3400  -0.0753   5.7354   6.2384   6.4472   6.9734   7.3975
     7.8213   8.6041   8.7130   9.1478  13.0481  13.4573  13.5936  14.9332

     occupation numbers 
     1.0000   1.0000   1.0000   1.0000   1.0000   1.0000   1.0000   1.0000
     1.0000   1.0000   1.0000   1.0000   1.0000   1.0000   1.0000   1.0000
     1.0000   1.0000   1.0000   1.0000   0.0000   0.0000   0.0000   0.0000

          k =-0.5000-0.1000-0.4746 (  1956 PWs)   bands (ev):

   -46.7750 -23.1263 -23.0219 -22.9726 -14.9778  -7.0947  -7.0659  -6.7314
    -0.4827  -0.3458  -0.0955   5.6461   5.9851   6.1104   6.9492   7.2927
     7.7670   8.7801   8.9257   9.3814  13.3853  13.4933  13.7290  14.9915

     occupation numbers 
     1.0000   1.0000   1.0000   1.0000   1.0000   1.0000   1.0000   1.0000
     1.0000   1.0000   1.0000   1.0000   1.0000   1.0000   1.0000   1.0000
     1.0000   1.0000   1.0000   1.0000   0.0000   0.0000   0.0000   0.0000

          k =-0.5000-0.1000-0.2848 (  1962 PWs)   bands (ev):

   -46.7752 -23.1166 -23.0227 -22.9730 -14.9926  -7.3681  -6.9261  -6.6855
    -0.3642  -0.3400  -0.0753   5.7354   6.2384   6.4472   6.9734   7.3975
     7.8213   8.6041   8.7130   9.1478  13.0480  13.4573  13.5936  14.9332

     occupation numbers 
     1.0000   1.0000   1.0000   1.0000   1.0000   1.0000   1.0000   1.0000
     1.0000   1.0000   1.0000   1.0000   1.0000   1.0000   1.0000   1.0000
     1.0000   1.0000   1.0000   1.0000   0.0000   0.0000   0.0000   0.0000

          k =-0.5000-0.1000-0.0949 (  1938 PWs)   bands (ev):

   -46.7753 -23.1006 -23.0237 -22.9735 -15.0164  -7.6031  -6.8814  -6.6023
    -0.2549  -0.1602  -0.1126   5.8207   6.9398   6.9489   7.0878   7.4419
     7.9852   8.3868   8.6244   8.6513  12.5052  13.4196  13.5056  14.3393

     occupation numbers 
     1.0000   1.0000   1.0000   1.0000   1.0000   1.0000   1.0000   1.0000
     1.0000   1.0000   1.0000   1.0000   1.0000   1.0000   1.0000   1.0000
     1.0000   1.0000   1.0000   1.0000   0.0000   0.0000   0.0000   0.0000

          k =-0.3000 0.1000 0.0949 (  1943 PWs)   bands (ev):

   -46.7757 -23.1014 -23.0053 -22.9741 -15.0526  -7.5431  -6.9089  -6.7192
    -0.3014  -0.2664  -0.0661   6.2958   6.9554   7.1561   7.4338   7.5900
     7.9969   8.5131   8.7944   8.9465  12.4606  12.9444  12.9714  14.4120

     occupation numbers 
     1.0000   1.0000   1.0000   1.0000   1.0000   1.0000   1.0000   1.0000
     1.0000   1.0000   1.0000   1.0000   1.0000   1.0000   1.0000   1.0000
     1.0000   1.0000   1.0000   1.0000   0.0000   0.0000   0.0000   0.0000

          k =-0.3000 0.1000 0.2848 (  1955 PWs)   bands (ev):

   -46.7755 -23.1176 -23.0044 -22.9737 -15.0232  -7.3798  -6.9733  -6.7373
    -0.3910  -0.2826  -0.0300   6.0999   6.3353   6.7925   7.1675   7.4012
     7.9843   8.5629   8.8641   9.0812  12.9402  13.0700  13.2183  14.8989

     occupation numbers 
     1.0000   1.0000   1.0000   1.0000   1.0000   1.0000   1.0000   1.0000
     1.0000   1.0000   1.0000   1.0000   1.0000   1.0000   1.0000   1.0000
     1.0000   1.0000   1.0000   1.0000   0.0000   0.0000   0.0000   0.0000

          k =-0.3000 0.1000-0.4746 (  1954 PWs)   bands (ev):

   -46.7753 -23.1275 -23.0039 -22.9733 -15.0047  -7.2803  -7.0075  -6.7411
    -0.4280  -0.2317  -0.0908   5.8263   6.1121   6.5994   7.0652   7.2830
     8.0810   8.5677   8.8584   9.1638  13.0148  13.3582  13.4611  14.9422

     occupation numbers 
     1.0000   1.0000   1.0000   1.0000   1.0000   1.0000   1.0000   1.0000
     1.0000   1.0000   1.0000   1.0000   1.0000   1.0000   1.0000   1.0000
     1.0000   1.0000   1.0000   1.0000   0.0000   0.0000   0.0000   0.0000

          k =-0.3000 0.1000-0.2848 (  1955 PWs)   bands (ev):

   -46.7755 -23.1176 -23.0044 -22.9737 -15.0232  -7.3798  -6.9733  -6.7373
    -0.3910  -0.2826  -0.0300   6.0999   6.3353   6.7925   7.1675   7.4012
     7.9843   8.5629   8.8641   9.0812  12.9402  13.0700  13.2183  14.8989

     occupation numbers 
     1.0000   1.0000   1.0000   1.0000   1.0000   1.0000   1.0000   1.0000
     1.0000   1.0000   1.0000   1.0000   1.0000   1.0000   1.0000   1.0000
     1.0000   1.0000   1.0000   1.0000   0.0000   0.0000   0.0000   0.0000

          k =-0.3000 0.1000-0.0949 (  1943 PWs)   bands (ev):

   -46.7757 -23.1014 -23.0053 -22.9741 -15.0526  -7.5431  -6.9089  -6.7192
    -0.3014  -0.2664  -0.0661   6.2958   6.9554   7.1561   7.4338   7.5900
     7.9969   8.5131   8.7944   8.9465  12.4606  12.9444  12.9714  14.4119

     occupation numbers 
     1.0000   1.0000   1.0000   1.0000   1.0000   1.0000   1.0000   1.0000
     1.0000   1.0000   1.0000   1.0000   1.0000   1.0000   1.0000   1.0000
     1.0000   1.0000   1.0000   1.0000   0.0000   0.0000   0.0000   0.0000

          k =-0.3000 0.3000 0.0949 (  1939 PWs)   bands (ev):

   -46.7751 -23.1002 -23.0041 -23.0036 -15.0060  -7.4192  -6.7954  -6.7476
    -0.4721  -0.3172  -0.0753   6.0377   6.5301   6.6742   7.1176   7.3469
     7.6112   8.6019   8.7374   9.4384  12.8523  13.1197  13.3212  14.6132

     occupation numbers 
     1.0000   1.0000   1.0000   1.0000   1.0000   1.0000   1.0000   1.0000
     1.0000   1.0000   1.0000   1.0000   1.0000   1.0000   1.0000   1.0000
     1.0000   1.0000   1.0000   1.0000   0.0000   0.0000   0.0000   0.0000

          k =-0.3000 0.3000 0.2848 (  1941 PWs)   bands (ev):

   -46.7749 -23.1161 -23.0033 -23.0029 -14.9813  -7.2147  -6.8661  -6.7060
    -0.6364  -0.5288  -0.1608   5.9511   6.4645   6.5292   6.9461   7.2528
     7.3176   8.8892   9.0377   9.3675  13.2945  13.3608  13.4410  15.8447

     occupation numbers 
     1.0000   1.0000   1.0000   1.0000   1.0000   1.0000   1.0000   1.0000
     1.0000   1.0000   1.0000   1.0000   1.0000   1.0000   1.0000   1.0000
     1.0000   1.0000   1.0000   1.0000   0.0000   0.0000   0.0000   0.0000

          k =-0.3000 0.3000-0.4746 (  1940 PWs)   bands (ev):

   -46.7747 -23.1259 -23.0028 -23.0024 -14.9659  -7.0093  -6.9886  -6.6749
    -0.7359  -0.4960  -0.3778   5.7858   6.3135   6.5334   6.7308   7.3242
     7.3856   9.0543   9.2238   9.2798  13.4508  13.5706  13.6226  16.1609

     occupation numbers 
     1.0000   1.0000   1.0000   1.0000   1.0000   1.0000   1.0000   1.0000
     1.0000   1.0000   1.0000   1.0000   1.0000   1.0000   1.0000   1.0000
     1.0000   1.0000   1.0000   1.0000   0.0000   0.0000   0.0000   0.0000

          k =-0.3000 0.3000-0.2848 (  1941 PWs)   bands (ev):

   -46.7749 -23.1161 -23.0033 -23.0029 -14.9813  -7.2147  -6.8661  -6.7060
    -0.6364  -0.5288  -0.1608   5.9511   6.4645   6.5292   6.9461   7.2528
     7.3176   8.8892   9.0377   9.3675  13.2945  13.3608  13.4410  15.8451

     occupation numbers 
     1.0000   1.0000   1.0000   1.0000   1.0000   1.0000   1.0000   1.0000
     1.0000   1.0000   1.0000   1.0000   1.0000   1.0000   1.0000   1.0000
     1.0000   1.0000   1.0000   1.0000   0.0000   0.0000   0.0000   0.0000

          k =-0.3000 0.3000-0.0949 (  1939 PWs)   bands (ev):

   -46.7751 -23.1002 -23.0041 -23.0036 -15.0060  -7.4192  -6.7954  -6.7476
    -0.4721  -0.3172  -0.0753   6.0377   6.5301   6.6742   7.1176   7.3469
     7.6112   8.6019   8.7374   9.4384  12.8523  13.1197  13.3212  14.6131

     occupation numbers 
     1.0000   1.0000   1.0000   1.0000   1.0000   1.0000   1.0000   1.0000
[...]

   -46.7753 -23.1275 -23.0039 -22.9733 -15.0047  -7.2803  -7.0075  -6.7411
    -0.4280  -0.2317  -0.0908   5.8263   6.1121   6.5994   7.0652   7.2830
     8.0810   8.5677   8.8584   9.1638  13.0148  13.3582  13.4611  14.9422

     occupation numbers 
     1.0000   1.0000   1.0000   1.0000   1.0000   1.0000   1.0000   1.0000
     1.0000   1.0000   1.0000   1.0000   1.0000   1.0000   1.0000   1.0000
     1.0000   1.0000   1.0000   1.0000   0.0000   0.0000   0.0000   0.0000

          k =-0.3000-0.1000-0.2848 (  1955 PWs)   bands (ev):

   -46.7755 -23.1176 -23.0044 -22.9737 -15.0232  -7.3798  -6.9733  -6.7373
    -0.3910  -0.2826  -0.0300   6.0999   6.3353   6.7925   7.1675   7.4012
     7.9843   8.5629   8.8641   9.0812  12.9402  13.0700  13.2183  14.8989

     occupation numbers 
     1.0000   1.0000   1.0000   1.0000   1.0000   1.0000   1.0000   1.0000
     1.0000   1.0000   1.0000   1.0000   1.0000   1.0000   1.0000   1.0000
     1.0000   1.0000   1.0000   1.0000   0.0000   0.0000   0.0000   0.0000

          k =-0.3000-0.1000-0.0949 (  1943 PWs)   bands (ev):

   -46.7757 -23.1014 -23.0053 -22.9741 -15.0526  -7.5431  -6.9089  -6.7192
    -0.3014  -0.2664  -0.0661   6.2958   6.9554   7.1561   7.4338   7.5900
     7.9969   8.5131   8.7944   8.9465  12.4606  12.9444  12.9714  14.4120

     occupation numbers 
     1.0000   1.0000   1.0000   1.0000   1.0000   1.0000   1.0000   1.0000
     1.0000   1.0000   1.0000   1.0000   1.0000   1.0000   1.0000   1.0000
     1.0000   1.0000   1.0000   1.0000   0.0000   0.0000   0.0000   0.0000

          k =-0.1000 0.1000 0.0949 (  1937 PWs)   bands (ev):

   -46.7762 -23.1026 -22.9754 -22.9751 -15.1100  -7.5168  -6.9605  -6.7997
    -0.3301  -0.3055  -0.1724   7.0645   7.2396   7.3154   7.8801   7.9323
     8.5947   8.6014   9.0701   9.2868  12.0962  12.4352  12.4571  14.3994

     occupation numbers 
     1.0000   1.0000   1.0000   1.0000   1.0000   1.0000   1.0000   1.0000
     1.0000   1.0000   1.0000   1.0000   1.0000   1.0000   1.0000   1.0000
     1.0000   1.0000   1.0000   1.0000   0.0000   0.0000   0.0000   0.0000

          k =-0.1000 0.1000 0.2848 (  1958 PWs)   bands (ev):

   -46.7760 -23.1191 -22.9748 -22.9747 -15.0717  -7.5124  -6.9638  -6.7943
    -0.2855  -0.2395  -0.0535   6.2873   6.9570   7.1356   7.4634   7.6123
     8.3732   8.4812   8.8819   9.1198  12.1575  12.9544  13.0054  14.3852

     occupation numbers 
     1.0000   1.0000   1.0000   1.0000   1.0000   1.0000   1.0000   1.0000
     1.0000   1.0000   1.0000   1.0000   1.0000   1.0000   1.0000   1.0000
     1.0000   1.0000   1.0000   1.0000   0.0000   0.0000   0.0000   0.0000

          k =-0.1000 0.1000-0.4746 (  1968 PWs)   bands (ev):

   -46.7759 -23.1293 -22.9745 -22.9744 -15.0476  -7.5473  -6.9167  -6.7946
    -0.2733  -0.1310  -0.0349   5.8464   6.8335   7.0167   7.1793   7.4696
     8.3446   8.3694   8.7391   9.0363  12.1889  13.2865  13.3445  14.3833

     occupation numbers 
     1.0000   1.0000   1.0000   1.0000   1.0000   1.0000   1.0000   1.0000
     1.0000   1.0000   1.0000   1.0000   1.0000   1.0000   1.0000   1.0000
     1.0000   1.0000   1.0000   1.0000   0.0000   0.0000   0.0000   0.0000

          k =-0.1000 0.1000-0.2848 (  1958 PWs)   bands (ev):

   -46.7760 -23.1191 -22.9748 -22.9747 -15.0717  -7.5124  -6.9638  -6.7943
    -0.2855  -0.2395  -0.0535   6.2873   6.9570   7.1356   7.4634   7.6123
     8.3732   8.4812   8.8819   9.1198  12.1575  12.9544  13.0054  14.3852

     occupation numbers 
     1.0000   1.0000   1.0000   1.0000   1.0000   1.0000   1.0000   1.0000
     1.0000   1.0000   1.0000   1.0000   1.0000   1.0000   1.0000   1.0000
     1.0000   1.0000   1.0000   1.0000   0.0000   0.0000   0.0000   0.0000

          k =-0.1000 0.1000-0.0949 (  1937 PWs)   bands (ev):

   -46.7762 -23.1026 -22.9754 -22.9751 -15.1100  -7.5168  -6.9605  -6.7997
    -0.3301  -0.3055  -0.1724   7.0645   7.2396   7.3154   7.8801   7.9323
     8.5947   8.6014   9.0701   9.2868  12.0962  12.4352  12.4571  14.3995

     occupation numbers 
     1.0000   1.0000   1.0000   1.0000   1.0000   1.0000   1.0000   1.0000
     1.0000   1.0000   1.0000   1.0000   1.0000   1.0000   1.0000   1.0000
     1.0000   1.0000   1.0000   1.0000   0.0000   0.0000   0.0000   0.0000

          k =-0.1000 0.3000 0.0949 (  1943 PWs)   bands (ev):

   -46.7757 -23.1014 -23.0053 -22.9741 -15.0526  -7.5431  -6.9089  -6.7192
    -0.3014  -0.2664  -0.0661   6.2959   6.9554   7.1560   7.4338   7.5900
     7.9969   8.5131   8.7944   8.9465  12.4606  12.9444  12.9714  14.4120

     occupation numbers 
     1.0000   1.0000   1.0000   1.0000   1.0000   1.0000   1.0000   1.0000
     1.0000   1.0000   1.0000   1.0000   1.0000   1.0000   1.0000   1.0000
     1.0000   1.0000   1.0000   1.0000   0.0000   0.0000   0.0000   0.0000

          k =-0.1000 0.3000 0.2848 (  1955 PWs)   bands (ev):

   -46.7755 -23.1176 -23.0044 -22.9737 -15.0232  -7.3799  -6.9733  -6.7372
    -0.3910  -0.2826  -0.0300   6.0999   6.3353   6.7925   7.1675   7.4012
     7.9842   8.5629   8.8641   9.0812  12.9402  13.0700  13.2183  14.8989

     occupation numbers 
     1.0000   1.0000   1.0000   1.0000   1.0000   1.0000   1.0000   1.0000
     1.0000   1.0000   1.0000   1.0000   1.0000   1.0000   1.0000   1.0000
     1.0000   1.0000   1.0000   1.0000   0.0000   0.0000   0.0000   0.0000

          k =-0.1000 0.3000-0.4746 (  1954 PWs)   bands (ev):

   -46.7753 -23.1275 -23.0039 -22.9733 -15.0047  -7.2803  -7.0075  -6.7411
    -0.4280  -0.2317  -0.0908   5.8263   6.1121   6.5994   7.0652   7.2830
     8.0810   8.5677   8.8584   9.1639  13.0148  13.3582  13.4611  14.9422

     occupation numbers 
     1.0000   1.0000   1.0000   1.0000   1.0000   1.0000   1.0000   1.0000
     1.0000   1.0000   1.0000   1.0000   1.0000   1.0000   1.0000   1.0000
     1.0000   1.0000   1.0000   1.0000   0.0000   0.0000   0.0000   0.0000

          k =-0.1000 0.3000-0.2848 (  1955 PWs)   bands (ev):

   -46.7755 -23.1176 -23.0044 -22.9737 -15.0232  -7.3799  -6.9733  -6.7372
    -0.3910  -0.2826  -0.0300   6.0999   6.3353   6.7925   7.1675   7.4012
     7.9842   8.5629   8.8641   9.0812  12.9402  13.0700  13.2183  14.8989

     occupation numbers 
     1.0000   1.0000   1.0000   1.0000   1.0000   1.0000   1.0000   1.0000
     1.0000   1.0000   1.0000   1.0000   1.0000   1.0000   1.0000   1.0000
     1.0000   1.0000   1.0000   1.0000   0.0000   0.0000   0.0000   0.0000

          k =-0.1000 0.3000-0.0949 (  1943 PWs)   bands (ev):

   -46.7757 -23.1014 -23.0053 -22.9741 -15.0526  -7.5431  -6.9089  -6.7192
    -0.3014  -0.2664  -0.0661   6.2959   6.9554   7.1560   7.4338   7.5900
     7.9969   8.5131   8.7944   8.9465  12.4606  12.9444  12.9714  14.4120

     occupation numbers 
     1.0000   1.0000   1.0000   1.0000   1.0000   1.0000   1.0000   1.0000
     1.0000   1.0000   1.0000   1.0000   1.0000   1.0000   1.0000   1.0000
     1.0000   1.0000   1.0000   1.0000   0.0000   0.0000   0.0000   0.0000

          k =-0.1000-0.5000 0.0949 (  1938 PWs)   bands (ev):

   -46.7753 -23.1006 -23.0237 -22.9735 -15.0164  -7.6031  -6.8814  -6.6023
    -0.2549  -0.1602  -0.1126   5.8207   6.9397   6.9489   7.0878   7.4419
     7.9852   8.3869   8.6244   8.6512  12.5052  13.4196  13.5056  14.3393

     occupation numbers 
     1.0000   1.0000   1.0000   1.0000   1.0000   1.0000   1.0000   1.0000
     1.0000   1.0000   1.0000   1.0000   1.0000   1.0000   1.0000   1.0000
     1.0000   1.0000   1.0000   1.0000   0.0000   0.0000   0.0000   0.0000

          k =-0.1000-0.5000 0.2848 (  1962 PWs)   bands (ev):

   -46.7752 -23.1166 -23.0227 -22.9730 -14.9926  -7.3681  -6.9262  -6.6854
    -0.3642  -0.3400  -0.0753   5.7354   6.2384   6.4472   6.9734   7.3975
     7.8213   8.6041   8.7129   9.1478  13.0481  13.4573  13.5936  14.9332

     occupation numbers 
     1.0000   1.0000   1.0000   1.0000   1.0000   1.0000   1.0000   1.0000
     1.0000   1.0000   1.0000   1.0000   1.0000   1.0000   1.0000   1.0000
     1.0000   1.0000   1.0000   1.0000   0.0000   0.0000   0.0000   0.0000

          k =-0.1000-0.5000-0.4746 (  1956 PWs)   bands (ev):

   -46.7750 -23.1263 -23.0219 -22.9726 -14.9778  -7.0948  -7.0659  -6.7313
    -0.4827  -0.3458  -0.0955   5.6461   5.9851   6.1105   6.9492   7.2927
     7.7670   8.7800   8.9256   9.3815  13.3853  13.4933  13.7290  14.9915

     occupation numbers 
     1.0000   1.0000   1.0000   1.0000   1.0000   1.0000   1.0000   1.0000
     1.0000   1.0000   1.0000   1.0000   1.0000   1.0000   1.0000   1.0000
     1.0000   1.0000   1.0000   1.0000   0.0000   0.0000   0.0000   0.0000

          k =-0.1000-0.5000-0.2848 (  1962 PWs)   bands (ev):

   -46.7752 -23.1166 -23.0227 -22.9730 -14.9926  -7.3681  -6.9262  -6.6854
    -0.3642  -0.3400  -0.0753   5.7354   6.2384   6.4472   6.9734   7.3975
     7.8213   8.6041   8.7129   9.1478  13.0481  13.4573  13.5936  14.9332

     occupation numbers 
     1.0000   1.0000   1.0000   1.0000   1.0000   1.0000   1.0000   1.0000
     1.0000   1.0000   1.0000   1.0000   1.0000   1.0000   1.0000   1.0000
     1.0000   1.0000   1.0000   1.0000   0.0000   0.0000   0.0000   0.0000

          k =-0.1000-0.5000-0.0949 (  1938 PWs)   bands (ev):

   -46.7753 -23.1006 -23.0237 -22.9735 -15.0164  -7.6031  -6.8814  -6.6023
    -0.2549  -0.1602  -0.1126   5.8207   6.9397   6.9489   7.0878   7.4419
     7.9852   8.3869   8.6244   8.6512  12.5052  13.4196  13.5056  14.3393

     occupation numbers 
     1.0000   1.0000   1.0000   1.0000   1.0000   1.0000   1.0000   1.0000
     1.0000   1.0000   1.0000   1.0000   1.0000   1.0000   1.0000   1.0000
     1.0000   1.0000   1.0000   1.0000   0.0000   0.0000   0.0000   0.0000

          k =-0.1000-0.3000 0.0949 (  1943 PWs)   bands (ev):

   -46.7757 -23.1014 -23.0053 -22.9741 -15.0526  -7.5431  -6.9089  -6.7192
    -0.3014  -0.2664  -0.0661   6.2959   6.9554   7.1560   7.4338   7.5900
     7.9969   8.5131   8.7944   8.9465  12.4606  12.9444  12.9714  14.4119

     occupation numbers 
     1.0000   1.0000   1.0000   1.0000   1.0000   1.0000   1.0000   1.0000
     1.0000   1.0000   1.0000   1.0000   1.0000   1.0000   1.0000   1.0000
     1.0000   1.0000   1.0000   1.0000   0.0000   0.0000   0.0000   0.0000

          k =-0.1000-0.3000 0.2848 (  1955 PWs)   bands (ev):

   -46.7755 -23.1176 -23.0044 -22.9737 -15.0232  -7.3799  -6.9733  -6.7372
    -0.3910  -0.2826  -0.0300   6.0999   6.3353   6.7925   7.1675   7.4012
     7.9842   8.5629   8.8641   9.0812  12.9402  13.0700  13.2183  14.8989

     occupation numbers 
     1.0000   1.0000   1.0000   1.0000   1.0000   1.0000   1.0000   1.0000
     1.0000   1.0000   1.0000   1.0000   1.0000   1.0000   1.0000   1.0000
     1.0000   1.0000   1.0000   1.0000   0.0000   0.0000   0.0000   0.0000

          k =-0.1000-0.3000-0.4746 (  1954 PWs)   bands (ev):

   -46.7753 -23.1275 -23.0039 -22.9733 -15.0047  -7.2803  -7.0075  -6.7411
    -0.4280  -0.2317  -0.0908   5.8263   6.1121   6.5994   7.0652   7.2830
     8.0810   8.5677   8.8584   9.1639  13.0148  13.3582  13.4611  14.9422

     occupation numbers 
     1.0000   1.0000   1.0000   1.0000   1.0000   1.0000   1.0000   1.0000
     1.0000   1.0000   1.0000   1.0000   1.0000   1.0000   1.0000   1.0000
     1.0000   1.0000   1.0000   1.0000   0.0000   0.0000   0.0000   0.0000

          k =-0.1000-0.3000-0.2848 (  1955 PWs)   bands (ev):

   -46.7755 -23.1176 -23.0044 -22.9737 -15.0232  -7.3799  -6.9733  -6.7372
    -0.3910  -0.2826  -0.0300   6.0999   6.3353   6.7925   7.1675   7.4012
     7.9842   8.5629   8.8641   9.0812  12.9402  13.0700  13.2183  14.8989

     occupation numbers 
     1.0000   1.0000   1.0000   1.0000   1.0000   1.0000   1.0000   1.0000
     1.0000   1.0000   1.0000   1.0000   1.0000   1.0000   1.0000   1.0000
     1.0000   1.0000   1.0000   1.0000   0.0000   0.0000   0.0000   0.0000

          k =-0.1000-0.3000-0.0949 (  1943 PWs)   bands (ev):

   -46.7757 -23.1014 -23.0053 -22.9741 -15.0526  -7.5431  -6.9089  -6.7192
    -0.3014  -0.2664  -0.0661   6.2959   6.9554   7.1560   7.4338   7.5900
     7.9969   8.5131   8.7944   8.9465  12.4606  12.9444  12.9714  14.4120

     occupation numbers 
     1.0000   1.0000   1.0000   1.0000   1.0000   1.0000   1.0000   1.0000
     1.0000   1.0000   1.0000   1.0000   1.0000   1.0000   1.0000   1.0000
     1.0000   1.0000   1.0000   1.0000   0.0000   0.0000   0.0000   0.0000

          k =-0.1000-0.1000 0.0949 (  1937 PWs)   bands (ev):

   -46.7762 -23.1026 -22.9754 -22.9751 -15.1100  -7.5168  -6.9605  -6.7997
    -0.3301  -0.3055  -0.1724   7.0645   7.2396   7.3154   7.8801   7.9323
     8.5947   8.6014   9.0701   9.2868  12.0963  12.4352  12.4571  14.4011

     occupation numbers 
     1.0000   1.0000   1.0000   1.0000   1.0000   1.0000   1.0000   1.0000
     1.0000   1.0000   1.0000   1.0000   1.0000   1.0000   1.0000   1.0000
     1.0000   1.0000   1.0000   1.0000   0.0000   0.0000   0.0000   0.0000

          k =-0.1000-0.1000 0.2848 (  1958 PWs)   bands (ev):

   -46.7760 -23.1191 -22.9748 -22.9747 -15.0717  -7.5124  -6.9638  -6.7943
    -0.2855  -0.2395  -0.0535   6.2873   6.9570   7.1356   7.4634   7.6123
     8.3732   8.4812   8.8819   9.1198  12.1575  12.9544  13.0054  14.3852

     occupation numbers 
     1.0000   1.0000   1.0000   1.0000   1.0000   1.0000   1.0000   1.0000
     1.0000   1.0000   1.0000   1.0000   1.0000   1.0000   1.0000   1.0000
     1.0000   1.0000   1.0000   1.0000   0.0000   0.0000   0.0000   0.0000

          k =-0.1000-0.1000-0.4746 (  1968 PWs)   bands (ev):

   -46.7759 -23.1293 -22.9745 -22.9744 -15.0476  -7.5473  -6.9167  -6.7946
    -0.2733  -0.1310  -0.0349   5.8464   6.8335   7.0167   7.1793   7.4696
     8.3446   8.3694   8.7391   9.0363  12.1889  13.2865  13.3445  14.3833

     occupation numbers 
     1.0000   1.0000   1.0000   1.0000   1.0000   1.0000   1.0000   1.0000
     1.0000   1.0000   1.0000   1.0000   1.0000   1.0000   1.0000   1.0000
     1.0000   1.0000   1.0000   1.0000   0.0000   0.0000   0.0000   0.0000

          k =-0.1000-0.1000-0.2848 (  1958 PWs)   bands (ev):

   -46.7760 -23.1191 -22.9748 -22.9747 -15.0717  -7.5124  -6.9638  -6.7943
    -0.2855  -0.2395  -0.0535   6.2873   6.9570   7.1356   7.4634   7.6123
     8.3732   8.4812   8.8819   9.1198  12.1575  12.9544  13.0054  14.3852

     occupation numbers 
     1.0000   1.0000   1.0000   1.0000   1.0000   1.0000   1.0000   1.0000
     1.0000   1.0000   1.0000   1.0000   1.0000   1.0000   1.0000   1.0000
     1.0000   1.0000   1.0000   1.0000   0.0000   0.0000   0.0000   0.0000

          k =-0.1000-0.1000-0.0949 (  1937 PWs)   bands (ev):

   -46.7762 -23.1026 -22.9754 -22.9751 -15.1100  -7.5168  -6.9605  -6.7997
    -0.3301  -0.3055  -0.1724   7.0645   7.2396   7.3154   7.8801   7.9323
     8.5947   8.6014   9.0701   9.2868  12.0962  12.4352  12.4571  14.3994

     occupation numbers 
     1.0000   1.0000   1.0000   1.0000   1.0000   1.0000   1.0000   1.0000
     1.0000   1.0000   1.0000   1.0000   1.0000   1.0000   1.0000   1.0000
     1.0000   1.0000   1.0000   1.0000   0.0000   0.0000   0.0000   0.0000

     highest occupied, lowest unoccupied level (ev):     9.9027   12.0962

!    total energy              =    -262.60811936 Ry
     estimated scf accuracy    <          2.0E-09 Ry

     The total energy is the sum of the following terms:
     one-electron contribution =     -77.47050331 Ry
     hartree contribution      =      60.34469355 Ry
     xc contribution           =     -42.78532148 Ry
     ewald contribution        =    -202.69698811 Ry

     convergence has been achieved in  12 iterations

     Writing all to output data dir calculations/batio3_pol.save/

     init_run     :      2.89s CPU      0.67s WALL (       1 calls)
     electrons    :    131.35s CPU     17.47s WALL (       1 calls)

     Called by init_run:
     wfcinit      :      2.57s CPU      0.41s WALL (       1 calls)
     wfcinit:wfcr :      2.44s CPU      0.39s WALL (      63 calls)
     potinit      :      0.03s CPU      0.01s WALL (       1 calls)
     hinit0       :      0.29s CPU      0.25s WALL (       1 calls)

     Called by electrons:
     c_bands      :    120.96s CPU     16.07s WALL (      12 calls)
     sum_band     :      9.85s CPU      1.33s WALL (      12 calls)
     v_of_rho     :      0.27s CPU      0.03s WALL (      13 calls)
     v_h          :      0.06s CPU      0.00s WALL (      13 calls)
     v_xc         :      0.21s CPU      0.02s WALL (      13 calls)
     mix_rho      :      0.03s CPU      0.01s WALL (      12 calls)

     Called by c_bands:
     init_us_2    :      0.40s CPU      0.08s WALL (    1575 calls)
     init_us_2:cp :      0.37s CPU      0.08s WALL (    1575 calls)
     cegterg      :    106.79s CPU     14.84s WALL (     756 calls)

     Called by sum_band:
     sum_band:wei :      0.00s CPU      0.00s WALL (      12 calls)
     sum_band:loo :      9.78s CPU      1.32s WALL (      12 calls)
     sum_band:buf :      0.03s CPU      0.00s WALL (     756 calls)
     sum_band:ini :      0.28s CPU      0.04s WALL (     756 calls)

     Called by *egterg:
     cdiaghg      :     19.93s CPU      2.51s WALL (    4337 calls)
     cegterg:over :      5.71s CPU      0.69s WALL (    3581 calls)
     cegterg:upda :      3.26s CPU      0.44s WALL (    3581 calls)
     cegterg:last :      6.56s CPU      0.87s WALL (    2131 calls)
     h_psi        :     64.94s CPU      9.49s WALL (    4400 calls)
     g_psi        :      0.01s CPU      0.01s WALL (    3581 calls)

     Called by h_psi:
     h_psi:calbec :      4.28s CPU      0.58s WALL (    4400 calls)
     vloc_psi     :     57.98s CPU      8.56s WALL (    4400 calls)
     add_vuspsi   :      2.51s CPU      0.34s WALL (    4400 calls)

     General routines
     calbec       :      4.22s CPU      0.57s WALL (    4400 calls)
     fft          :      0.50s CPU      0.26s WALL (     129 calls)
     ffts         :      0.00s CPU      0.00s WALL (      12 calls)
     fftw         :     65.97s CPU      9.61s WALL (   68452 calls)

     Parallel routines

     PWSCF        :   2m16.61s CPU     18.74s WALL


   This run was terminated on:  14:11:40   5Sep2023            

=------------------------------------------------------------------------------=
   JOB DONE.
=------------------------------------------------------------------------------=
Note: The following floating-point exceptions are signalling: IEEE_DENORMAL
Note: The following floating-point exceptions are signalling: IEEE_DENORMAL
Note: The following floating-point exceptions are signalling: IEEE_DENORMAL
Note: The following floating-point exceptions are signalling: IEEE_DENORMAL
Note: The following floating-point exceptions are signalling: IEEE_DENORMAL
Note: The following floating-point exceptions are signalling: IEEE_DENORMAL
Note: The following floating-point exceptions are signalling: IEEE_DENORMAL
Note: The following floating-point exceptions are signalling: IEEE_DENORMAL
Note: The following floating-point exceptions are signalling: IEEE_DENORMAL
Note: The following floating-point exceptions are signalling: IEEE_DENORMAL
Note: The following floating-point exceptions are signalling: IEEE_DENORMAL
Note: The following floating-point exceptions are signalling: IEEE_DENORMAL
Note: The following floating-point exceptions are signalling: IEEE_DENORMAL
Note: The following floating-point exceptions are signalling: IEEE_DENORMAL
Note: The following floating-point exceptions are signalling: IEEE_DENORMAL
Note: The following floating-point exceptions are signalling: IEEE_DENORMAL
Note: The following floating-point exceptions are signalling: IEEE_DENORMAL
Note: The following floating-point exceptions are signalling: IEEE_DENORMAL
Note: The following floating-point exceptions are signalling: IEEE_DENORMAL
Note: The following floating-point exceptions are signalling: IEEE_DENORMAL
Note: The following floating-point exceptions are signalling: IEEE_DENORMAL
Note: The following floating-point exceptions are signalling: IEEE_DENORMAL
